/*--------------------------------*- C++ -*----------------------------------*\
  =========                 |
  \\      /  F ield         | OpenFOAM: The Open Source CFD Toolbox
   \\    /   O peration     | Website:  https://openfoam.org
    \\  /    A nd           | Version:  12
     \\/     M anipulation  |
\*---------------------------------------------------------------------------*/
FoamFile
{
    format      ascii;
    class       volScalarField;
    location    "360";
    object      p;
}
// * * * * * * * * * * * * * * * * * * * * * * * * * * * * * * * * * * * * * //

dimensions      [0 2 -2 0 0 0 0];

internalField   nonuniform List<scalar> 
6750
(
0.0216371
0.021615
0.0215856
0.0214221
0.0203936
0.0231554
0.0231189
0.0229916
0.0227257
0.0223663
0.0249482
0.024889
0.0247585
0.0245604
0.0244074
0.0268288
0.0267349
0.0266107
0.0264703
0.0263934
0.0286959
0.028558
0.028424
0.0283114
0.0282727
0.0304698
0.0302834
0.0301285
0.0300259
0.0300045
0.0321019
0.0318658
0.0316863
0.0315864
0.0315736
0.0335631
0.033278
0.0330737
0.0329747
0.032967
0.0348349
0.0345031
0.0342762
0.034178
0.0341739
0.0359068
0.0355325
0.0352861
0.0351892
0.0351877
0.0367756
0.0363642
0.0361021
0.0360071
0.0360075
0.0374445
0.0370021
0.0367288
0.0366362
0.0366377
0.0379227
0.0374556
0.0371761
0.0370859
0.0370877
0.0382244
0.0377384
0.0374592
0.0373701
0.0373712
0.0383628
0.0378711
0.0375971
0.0375056
0.0375045
0.0383628
0.0378711
0.0375971
0.0375056
0.0375046
0.0382245
0.0377385
0.0374592
0.0373701
0.0373712
0.0379227
0.0374557
0.0371762
0.0370859
0.0370877
0.0374446
0.0370022
0.0367289
0.0366363
0.0366378
0.0367757
0.0363643
0.0361022
0.0360072
0.0360076
0.035907
0.0355327
0.0352863
0.0351893
0.0351879
0.0348351
0.0345033
0.0342764
0.0341782
0.0341741
0.0335633
0.0332782
0.033074
0.0329749
0.0329672
0.0321022
0.0318661
0.0316865
0.0315867
0.0315738
0.0304701
0.0302837
0.0301288
0.0300262
0.0300048
0.0286963
0.0285583
0.0284243
0.0283117
0.028273
0.0268292
0.0267353
0.026611
0.0264706
0.0263938
0.0249486
0.0248894
0.0247589
0.0245608
0.0244078
0.0231559
0.0231194
0.022992
0.0227261
0.0223668
0.0216375
0.0216155
0.0215861
0.0214226
0.0203941
0.0142147
0.0148074
0.0162757
0.0173606
0.0181471
0.018772
0.0192618
0.0196277
0.0198977
0.0200821
0.0201441
0.0201578
0.0200952
0.0199524
0.0197281
0.0194186
0.019021
0.0185382
0.0179734
0.0173267
0.0165925
0.0158755
0.0151205
0.0143428
0.0135624
0.0127921
0.0120415
0.0113254
0.0106536
0.0099709
0.0181244
0.0189201
0.0197198
0.0201207
0.0203495
0.0204908
0.0205467
0.0205262
0.0204583
0.0203401
0.0201304
0.0199433
0.0197379
0.0195171
0.0192794
0.0190158
0.0187139
0.0183625
0.017951
0.0174765
0.016957
0.0163236
0.0156591
0.0149544
0.0142175
0.01346
0.0126898
0.0119214
0.0111951
0.0104907
0.020605
0.0207886
0.0211035
0.0212574
0.0213331
0.0213413
0.0212699
0.0211297
0.0209419
0.0206711
0.0203215
0.0199863
0.0196231
0.0192429
0.0188518
0.0184494
0.0180326
0.0175961
0.0171342
0.0166423
0.0161191
0.0155642
0.0149838
0.0143776
0.0137501
0.0131075
0.0124507
0.0117905
0.0112139
0.0107969
0.0220478
0.0218237
0.0219525
0.0220353
0.0220444
0.021977
0.0218281
0.0216146
0.0213454
0.0209511
0.0205049
0.0200455
0.019544
0.019017
0.0184763
0.0179298
0.0173829
0.0168385
0.0162975
0.0157585
0.0152199
0.0146856
0.0141521
0.0136164
0.0130785
0.0125386
0.0119895
0.0114339
0.011001
0.0109188
0.0231384
0.0227663
0.0228129
0.0228249
0.0227506
0.0225958
0.0223609
0.0220614
0.0216951
0.0211853
0.0206429
0.0200633
0.0194363
0.0187819
0.0181154
0.01745
0.016797
0.0161645
0.0155576
0.0149782
0.0144255
0.0138988
0.0133947
0.0129084
0.0124362
0.0119742
0.0115088
0.0110333
0.0107087
0.0109308
0.0240855
0.0236743
0.0236561
0.023588
0.0234277
0.0231864
0.0228652
0.0224762
0.0220025
0.0213874
0.0207451
0.0200498
0.0193059
0.0185354
0.0177568
0.0169873
0.016242
0.0155328
0.0148674
0.0142496
0.0136793
0.0131539
0.012669
0.0122182
0.0117955
0.0113945
0.0109963
0.0105868
0.0103527
0.0108475
0.0249234
0.0245184
0.024442
0.0242972
0.0240581
0.0237359
0.023333
0.0228574
0.0222712
0.0215623
0.0208199
0.0200147
0.019161
0.0182823
0.0173999
0.0165343
0.0157037
0.0149226
0.014201
0.0135438
0.0129515
0.012421
0.0119467
0.0115208
0.0111358
0.0107831
0.0104398
0.0100865
0.00993239
0.0106689
0.0256726
0.0253036
0.0251768
0.0249604
0.024647
0.0242472
0.0237662
0.0232062
0.0225069
0.0217143
0.0208718
0.0199615
0.0190038
0.0180232
0.0170436
0.0160881
0.0151773
0.0143281
0.0135517
0.0128543
0.0122368
0.0116958
0.0112247
0.010815
0.0104578
0.0101429
0.00984355
0.00953714
0.00945406
0.0103986
0.0263551
0.0260437
0.0258726
0.0255873
0.025202
0.0247272
0.0241707
0.0235217
0.0227182
0.0218445
0.020903
0.0198919
0.0188349
0.0177577
0.0166862
0.0156457
0.014659
0.0137444
0.0129146
0.0121765
0.0115313
0.0109755
0.0105019
0.0101011
0.00976332
0.00947704
0.00921216
0.00894448
0.00892437
0.0100425
0.0269877
0.0267485
0.0265378
0.0261851
0.0257296
0.0251833
0.0245507
0.0238048
0.0229115
0.0219533
0.0209153
0.0198073
0.0186549
0.0174851
0.0163256
0.0152039
0.0141442
0.0131664
0.012284
0.0115046
0.0108296
0.0102554
0.00977431
0.00937641
0.00905122
0.00878587
0.00854733
0.00831131
0.00834743
0.00960673
0.027583
0.0274259
0.0271792
0.0267596
0.0262342
0.0256184
0.0249094
0.0240626
0.0230898
0.022044
0.0209115
0.0197092
0.0184641
0.0172045
0.0159599
0.0147594
0.0136287
0.0125887
0.011654
0.0108323
0.0101255
0.00952979
0.00903714
0.00863708
0.00831861
0.00806766
0.00784856
0.00763825
0.00772491
0.00909638
0.0281511
0.0280833
0.0278035
0.0273164
0.0267212
0.0260379
0.0252491
0.0243029
0.023255
0.0221197
0.0208937
0.0195989
0.0182627
0.0169149
0.0155869
0.014309
0.0131083
0.0120065
0.0110189
0.0101538
0.00941309
0.00879286
0.00828489
0.00787823
0.00756144
0.00731929
0.00711371
0.00692399
0.00705635
0.0085151
0.0287017
0.0287279
0.0284177
0.0278636
0.0271998
0.0264448
0.0255686
0.0245353
0.0234089
0.0221826
0.0208639
0.0194771
0.0180505
0.0166154
0.0152045
0.0138496
0.0125787
0.0114145
0.010373
0.00946282
0.00868587
0.00803824
0.00751142
0.00709414
0.00677453
0.00653622
0.00633899
0.00616543
0.00633931
0.00786473
0.0292445
0.0293664
0.0290285
0.0284071
0.0276743
0.026846
0.0258757
0.0247641
0.0235536
0.0222352
0.0208237
0.0193446
0.0178272
0.0163044
0.0148101
0.0133774
0.0120354
0.0108076
0.00971043
0.00875291
0.00793709
0.00725896
0.0067098
0.00627807
0.00595148
0.0057125
0.00551894
0.0053576
0.00556931
0.00714497
0.0297869
0.0300081
0.0296441
0.0289547
0.0281525
0.0272457
0.0261795
0.024992
0.0236925
0.0222804
0.0207747
0.0192018
0.0175922
0.0159802
0.014401
0.0128888
0.0114738
0.0101801
0.00902473
0.00801708
0.0071593
0.0064473
0.00587218
0.00542214
0.00508454
0.00484059
0.00464634
0.00449357
0.00473984
0.00635312
0.0303361
0.0306644
0.030277
0.0295192
0.0286402
0.0276442
0.0264915
0.0252221
0.0238292
0.0223207
0.0207183
0.0190489
0.0173445
0.0156406
0.0139739
0.0123794
0.0108883
0.00952564
0.00830882
0.00724756
0.00634416
0.0055945
0.0049895
0.00451715
0.00416443
0.00391125
0.00371207
0.00356434
0.00384216
0.00548381
0.0309024
0.0313477
0.0309383
0.0301088
0.0291468
0.0280518
0.0268181
0.0254581
0.0239671
0.0223586
0.0206555
0.0188858
0.0170827
0.0152831
0.0135247
0.011844
0.0102729
0.00883709
0.00755461
0.00643548
0.00548216
0.00469048
0.00405124
0.00355223
0.00318004
0.00291323
0.00270478
0.0025585
0.00286503
0.00452862
0.0315024
0.0320715
0.0316418
0.0307312
0.0296761
0.0284841
0.0271643
0.0257053
0.0241104
0.0223967
0.0205874
0.0187119
0.0168047
0.014904
0.0130488
0.0112766
0.00962018
0.00810602
0.00675268
0.00557052
0.00456215
0.00372342
0.00304496
0.00251443
0.00211802
0.00183283
0.0016105
0.00146184
0.00179427
0.00347561
0.0321599
0.0328458
0.0323983
0.0314008
0.0302382
0.0289524
0.0275348
0.0259688
0.0242634
0.0224371
0.0205145
0.018526
0.0165076
0.0144989
0.01254
0.0106695
0.00892124
0.00732226
0.00589171
0.00464031
0.00357083
0.00267912
0.00195572
0.00138813
0.000962115
0.000653256
0.000411965
0.000256653
0.000612033
0.00230863
0.0328937
0.03369
0.0332255
0.0321302
0.0308507
0.0294656
0.0279384
0.026256
0.0244307
0.0224825
0.020437
0.0183261
0.0161874
0.0140617
0.0119905
0.0100133
0.00816496
0.00647323
0.00495778
0.0036297
0.0024919
0.00154025
0.000765201
0.000154127
-0.000307696
-0.000646277
-0.000912339
-0.00107924
-0.000704212
0.00100623
0.0337296
0.0346374
0.0341445
0.0329315
0.0315364
0.0300371
0.0283864
0.0265751
0.0246175
0.0225347
0.0203541
0.0181089
0.0158382
0.0135843
0.0113899
0.0092956
0.00733712
0.00554298
0.00393336
0.00251966
0.00130496
0.000285134
-0.000549471
-0.00121161
-0.00171652
-0.0020919
-0.00238953
-0.00257391
-0.0021832
-0.000459825
0.0347084
0.0357095
0.0351757
0.0338396
0.0323171
0.030683
0.0288917
0.0269352
0.0248289
0.0225955
0.0202638
0.017869
0.0154516
0.0130553
0.0107241
0.00849987
0.006419
0.00451074
0.00279574
0.00128571
-1.61518e-05
-0.00111399
-0.00201757
-0.00273978
-0.00329644
-0.00371706
-0.00405436
-0.00426342
-0.00386213
-0.002127
0.0358767
0.0369515
0.0363595
0.0348919
0.0332165
0.0314238
0.0294702
0.0273469
0.0250703
0.0226652
0.0201621
0.017598
0.0150151
0.0124586
0.00997391
0.00760373
0.0053854
0.00334873
0.00151477
-0.000104545
-0.00150593
-0.0026936
-0.00367746
-0.0044706
-0.00508946
-0.00556547
-0.00595229
-0.00619501
-0.00579003
-0.00404561
0.0373024
0.0384236
0.0377564
0.0361293
0.034268
0.0322865
0.0301413
0.0278222
0.0253469
0.0227423
0.0200412
0.0172824
0.0145101
0.011771
0.00911159
0.00657571
0.00420132
0.0020187
4.91771e-05
-0.0016952
-0.00321115
-0.00450304
-0.00558095
-0.00645821
-0.00715202
-0.00769583
-0.00814423
-0.00843201
-0.00803305
-0.00628463
0.0390983
0.0402198
0.0394383
0.0376067
0.0355177
0.0333069
0.0309298
0.0283753
0.0256628
0.0228218
0.0198874
0.0169009
0.0139082
0.0109575
0.00809671
0.00537025
0.0028166
0.00046626
-0.00165938
-0.00354832
-0.00519743
-0.00661129
-0.00780025
-0.00877794
-0.00956245
-0.0101894
-0.0107143
-0.0110617
-0.0106831
-0.00894158
0.0413915
0.0424638
0.0415049
0.0394077
0.0370321
0.0345341
0.0318684
0.0290233
0.0260204
0.0228923
0.0196771
0.0164185
0.0131644
0.00996461
0.00686786
0.00391902
0.00115661
-0.00138903
-0.00369678
-0.00575492
-0.00756064
-0.00911883
-0.0104401
-0.0115386
-0.0124333
-0.0131621
-0.0137816
-0.0142072
-0.0138705
-0.012157
0.044438
0.0453495
0.0441122
0.0416594
0.0389105
0.0360398
0.0330019
0.0297858
0.0264161
0.0229294
0.0193672
0.0157758
0.0122053
0.00870658
0.00532859
0.00211591
-0.000893654
-0.00367066
-0.0061948
-0.00845502
-0.010449
-0.0121817
-0.0136644
-0.0149112
-0.0159421
-0.0167968
-0.017533
-0.0180602
-0.0177985
-0.0161539
0.0486202
0.0491592
0.047468
0.0445225
0.0412744
0.0379072
0.0343771
0.0306754
0.0268314
0.0228862
0.0188857
0.0148794
0.0109189
0.00705572
0.00333804
-0.000191222
-0.00349636
-0.00655008
-0.00933384
-0.0118378
-0.0140608
-0.0160086
-0.0176918
-0.0191251
-0.0203289
-0.0213439
-0.0222273
-0.0228891
-0.0227611
-0.0212708
0.0548103
0.0546023
0.0521661
0.0485199
0.0445662
0.0404776
0.0362229
0.0318071
0.0272712
0.022666
0.0180446
0.0134609
0.00896808
0.00461628
0.00045074
-0.00348989
-0.0071745
-0.0105799
-0.0136902
-0.0164961
-0.0189996
-0.0212195
-0.0231515
-0.0248101
-0.0262166
-0.0274092
-0.0284407
-0.0292368
-0.0293055
-0.0281361
0.0656178
0.063723
0.0597321
0.0548553
0.0497378
0.0444757
0.0390658
0.0335434
0.0279664
0.0223953
0.0168873
0.0114957
0.00626827
0.00124626
-0.00353592
-0.00805088
-0.0122778
-0.0162021
-0.0198153
-0.0231153
-0.026098
-0.0287514
-0.0311012
-0.0331557
-0.0349259
-0.0364376
-0.0377359
-0.03881
-0.0393644
-0.0388446
0.0178812
0.0188187
0.0205662
0.0219476
0.023101
0.024173
0.0251973
0.0261828
0.0271396
0.0280769
0.0290032
0.0299261
0.0308539
0.031795
0.0327579
0.033753
0.034793
0.0358943
0.0370757
0.0383587
0.0397708
0.0413517
0.0431487
0.0452278
0.047678
0.0506343
0.0542821
0.0588343
0.0645182
0.0718553
0.022201
0.0231761
0.0243004
0.0252355
0.0260684
0.026861
0.0276249
0.0283644
0.0290866
0.0297998
0.0305118
0.0312306
0.0319645
0.0327225
0.0335143
0.0343514
0.0352477
0.0362202
0.037289
0.038479
0.0398225
0.0413626
0.0431561
0.0452809
0.0478468
0.0510165
0.0550245
0.0601926
0.0670084
0.0760601
0.0245082
0.0253765
0.0262183
0.0269687
0.027696
0.0284168
0.0291278
0.0298302
0.0305286
0.0312291
0.0319376
0.0326607
0.0334059
0.0341812
0.0349962
0.0358624
0.0367937
0.0378074
0.0389249
0.0401731
0.0415873
0.0432144
0.0451174
0.0473837
0.050137
0.0535568
0.0579092
0.063573
0.0711992
0.0814793
0.0265198
0.0272793
0.0280061
0.028677
0.0293406
0.0300067
0.0306745
0.0313467
0.0320284
0.0327248
0.0334418
0.0341855
0.034963
0.0357824
0.0366533
0.0375872
0.0385987
0.0397054
0.0409297
0.0423002
0.0438543
0.0456419
0.0477301
0.0502121
0.0532194
0.0569413
0.0616585
0.0677666
0.0760074
0.0871186
0.0283969
0.0290638
0.0297013
0.0303013
0.0309051
0.0315227
0.0321547
0.032804
0.0334746
0.0341714
0.0348996
0.035665
0.0364745
0.0373364
0.0382604
0.0392587
0.0403462
0.0415415
0.0428682
0.0443564
0.0460459
0.0479891
0.0502569
0.0529468
0.0561963
0.0602021
0.065255
0.0717614
0.0805469
0.0924069
0.0301109
0.0306959
0.0312576
0.0317982
0.032355
0.0329367
0.0335439
0.0341789
0.0348451
0.035547
0.0362892
0.0370774
0.0379186
0.0388208
0.0397941
0.040851
0.0420068
0.0432808
0.0446978
0.0462894
0.048097
0.0501754
0.0525985
0.0554677
0.0589252
0.0631744
0.0685156
0.0753683
0.0846397
0.0972075
0.0316588
0.0321707
0.0326683
0.0331606
0.0336807
0.0342356
0.0348255
0.0354522
0.0361188
0.0368292
0.0375878
0.0384001
0.0392728
0.040214
0.041234
0.0423453
0.0435638
0.0449095
0.0464078
0.0480914
0.0500033
0.0522001
0.054758
0.0577816
0.061417
0.0658732
0.0714593
0.0786084
0.0882941
0.10149
0.033036
0.0334823
0.033925
0.0343779
0.0348691
0.0354039
0.035982
0.0366047
0.0372748
0.0379957
0.0387715
0.0396075
0.0405102
0.0414879
0.0425507
0.0437116
0.0449866
0.0463963
0.0479668
0.0497317
0.051735
0.0540348
0.0567093
0.0598654
0.0636525
0.0682841
0.0740771
0.0814767
0.0915018
0.105229
0.0342341
0.0346215
0.0350176
0.0354387
0.0359076
0.0364276
0.0369979
0.0376196
0.0382949
0.0390268
0.0398193
0.0406773
0.0416074
0.0426177
0.0437185
0.0449229
0.0462472
0.0477124
0.0493451
0.0511797
0.053261
0.0556483
0.0584213
0.0616888
0.0656027
0.0703804
0.0763451
0.0839522
0.0942456
0.108412
0.035246
0.0355817
0.0359393
0.0363353
0.0367872
0.0372965
0.0378619
0.0384843
0.0391654
0.039908
0.0407156
0.0415931
0.042547
0.0435854
0.0447186
0.0459598
0.0473257
0.0488374
0.050522
0.0524144
0.0545602
0.0570197
0.0598734
0.0632319
0.067249
0.072145
0.0782485
0.0860235
0.0965208
0.111042
0.036069
0.0363608
0.0366875
0.0370644
0.0375037
0.0380053
0.038568
0.0391919
0.0398787
0.0406306
0.0414512
0.0423451
0.0433188
0.0443803
0.04554
0.0468112
0.0482107
0.0497598
0.0514861
0.0534249
0.0556221
0.0581389
0.0610567
0.0644869
0.0685853
0.0735741
0.0797863
0.0876928
0.0983377
0.113141
0.036705
0.0369615
0.0372646
0.0376276
0.0380579
0.0385544
0.0391154
0.0397412
0.0404328
0.0411924
0.0420234
0.0429304
0.0439195
0.044999
0.0461793
0.0474737
0.0488991
0.050477
0.0522352
0.0542093
0.0564457
0.0590059
0.0619722
0.0654567
0.0696163
0.0746747
0.0809683
0.0889737
0.0997183
0.114742
0.0371613
0.0373915
0.037678
0.0380314
0.0384556
0.0389487
0.039509
0.0401363
0.0408317
0.0415972
0.0424359
0.0433523
0.0443528
0.0454454
0.0466405
0.0479515
0.0493954
0.0509939
0.0527749
0.0547742
0.0570385
0.0596296
0.0626301
0.0661529
0.0703557
0.075463
0.0818138
0.089889
0.100694
0.115884
0.0374497
0.0376627
0.0379387
0.0382863
0.0387069
0.039198
0.039758
0.0403865
0.0410845
0.0418538
0.0426975
0.0436201
0.0446278
0.0457287
0.0469333
0.0482549
0.0497107
0.0513223
0.0531177
0.0551329
0.0574149
0.0600255
0.0630476
0.0665947
0.0708246
0.0759626
0.0823493
0.0904682
0.101301
0.116613
0.0375851
0.0377898
0.0380608
0.0384058
0.0388247
0.039315
0.0398749
0.0405041
0.0412034
0.0419746
0.0428207
0.0437463
0.0447575
0.0458625
0.0470716
0.0483983
0.0498597
0.0514776
0.05328
0.0553028
0.0575932
0.0602131
0.0632457
0.0668042
0.071047
0.0761996
0.0826034
0.090743
0.101582
0.116966
0.0375851
0.0377899
0.0380609
0.0384058
0.0388247
0.039315
0.0398749
0.0405041
0.0412034
0.0419746
0.0428207
0.0437463
0.0447575
0.0458625
0.0470716
0.0483983
0.0498597
0.0514776
0.05328
0.0553029
0.0575932
0.0602131
0.0632457
0.0668042
0.0710471
0.0761997
0.0826034
0.090743
0.101582
0.116966
0.0374497
0.0376627
0.0379387
0.0382863
0.0387069
0.039198
0.039758
0.0403866
0.0410845
0.0418538
0.0426975
0.0436201
0.0446278
0.0457287
0.0469333
0.0482549
0.0497107
0.0513223
0.0531178
0.055133
0.0574149
0.0600255
0.0630477
0.0665947
0.0708246
0.0759627
0.0823493
0.0904683
0.101301
0.116613
0.0371614
0.0373916
0.037678
0.0380315
0.0384557
0.0389487
0.039509
0.0401364
0.0408318
0.0415972
0.0424359
0.0433524
0.0443529
0.0454454
0.0466405
0.0479515
0.0493955
0.050994
0.052775
0.0547742
0.0570386
0.0596296
0.0626302
0.066153
0.0703558
0.0754632
0.0818139
0.0898891
0.100694
0.115885
0.0367051
0.0369616
0.0372647
0.0376277
0.038058
0.0385544
0.0391155
0.0397412
0.0404329
0.0411925
0.0420235
0.0429304
0.0439196
0.0449991
0.0461794
0.0474738
0.0488991
0.0504771
0.0522353
0.0542094
0.0564459
0.0590061
0.0619723
0.0654568
0.0696164
0.0746749
0.0809684
0.0889739
0.0997186
0.114742
0.0360691
0.0363609
0.0366876
0.0370645
0.0375038
0.0380055
0.0385681
0.039192
0.0398788
0.0406307
0.0414513
0.0423452
0.0433189
0.0443804
0.0455401
0.0468113
0.0482108
0.04976
0.0514863
0.053425
0.0556223
0.058139
0.0610568
0.0644871
0.0685855
0.0735743
0.0797865
0.087693
0.098338
0.113141
0.0352462
0.0355819
0.0359394
0.0363355
0.0367874
0.0372966
0.0378621
0.0384845
0.0391656
0.0399081
0.0407157
0.0415932
0.0425471
0.0435855
0.0447187
0.04596
0.0473258
0.0488375
0.0505221
0.0524146
0.0545604
0.0570198
0.0598736
0.0632321
0.0672493
0.0721453
0.0782488
0.0860238
0.0965212
0.111042
0.0342342
0.0346217
0.0350178
0.0354389
0.0359078
0.0364277
0.036998
0.0376197
0.0382951
0.039027
0.0398194
0.0406775
0.0416075
0.0426178
0.0437187
0.044923
0.0462474
0.0477126
0.0493453
0.0511799
0.0532612
0.0556486
0.0584216
0.0616891
0.065603
0.0703807
0.0763454
0.0839526
0.094246
0.108412
0.0330362
0.0334825
0.0339252
0.0343781
0.0348693
0.0354041
0.0359822
0.0366049
0.037275
0.0379959
0.0387717
0.0396077
0.0405104
0.0414881
0.0425509
0.0437118
0.0449868
0.0463965
0.047967
0.0497319
0.0517352
0.0540351
0.0567096
0.0598657
0.0636528
0.0682844
0.0740775
0.0814771
0.0915022
0.10523
0.031659
0.032171
0.0326685
0.0331609
0.0336809
0.0342358
0.0348257
0.0354524
0.036119
0.0368294
0.037588
0.0384003
0.039273
0.0402142
0.0412342
0.0423455
0.043564
0.0449097
0.046408
0.0480917
0.0500036
0.0522004
0.0547583
0.0577819
0.0614173
0.0658735
0.0714597
0.0786089
0.0882947
0.101491
0.0301111
0.0306961
0.0312578
0.0317985
0.0323553
0.032937
0.0335442
0.0341791
0.0348454
0.0355472
0.0362894
0.0370776
0.0379188
0.038821
0.0397943
0.0408512
0.042007
0.0432811
0.0446981
0.0462897
0.0480973
0.0501757
0.0525988
0.0554681
0.0589256
0.0631748
0.068516
0.0753688
0.0846404
0.0972083
0.0283973
0.0290641
0.0297016
0.0303016
0.0309054
0.031523
0.032155
0.0328042
0.0334749
0.0341717
0.0348998
0.0356652
0.0364747
0.0373366
0.0382607
0.039259
0.0403465
0.0415418
0.0428685
0.0443567
0.0460462
0.0479894
0.0502572
0.0529472
0.0561967
0.0602026
0.0652555
0.071762
0.0805476
0.0924077
0.0265202
0.0272797
0.0280064
0.0286773
0.0293409
0.030007
0.0306748
0.031347
0.0320286
0.0327251
0.0334421
0.0341858
0.0349633
0.0357827
0.0366535
0.0375875
0.038599
0.0397057
0.04093
0.0423005
0.0438547
0.0456422
0.0477305
0.0502125
0.0532199
0.0569418
0.0616591
0.0677672
0.0760081
0.0871195
0.0245086
0.0253769
0.0262187
0.0269691
0.0276963
0.0284171
0.0291281
0.0298305
0.0305289
0.0312293
0.0319378
0.032661
0.0334062
0.0341815
0.0349965
0.0358627
0.036794
0.0378077
0.0389252
0.0401734
0.0415877
0.0432148
0.0451178
0.0473841
0.0501374
0.0535573
0.0579098
0.0635737
0.0712
0.0814802
0.0222015
0.0231766
0.0243008
0.0252359
0.0260687
0.0268613
0.0276252
0.0283647
0.0290869
0.0298001
0.0305121
0.0312309
0.0319648
0.0327228
0.0335146
0.0343517
0.035248
0.0362205
0.0372893
0.0384793
0.0398228
0.041363
0.0431565
0.0452814
0.0478473
0.051017
0.0550251
0.0601933
0.0670092
0.0760611
0.0178818
0.0188192
0.0205667
0.0219481
0.0231015
0.0241734
0.0251977
0.0261832
0.0271399
0.0280773
0.0290036
0.0299265
0.0308542
0.0317954
0.0327582
0.0337533
0.0347933
0.0358946
0.037076
0.038359
0.0397712
0.041352
0.0431491
0.0452283
0.0476784
0.0506348
0.0542827
0.058835
0.064519
0.0718563
0.0656189
0.063724
0.0597332
0.0548564
0.0497389
0.0444768
0.0390669
0.0335445
0.0279676
0.0223964
0.0168885
0.0114969
0.00626938
0.00124734
-0.00353487
-0.00804987
-0.0122768
-0.0162012
-0.0198145
-0.0231144
-0.0260972
-0.0287507
-0.0311005
-0.033155
-0.0349253
-0.036437
-0.0377353
-0.0388096
-0.039364
-0.0388442
0.0548112
0.0546032
0.052167
0.0485208
0.0445672
0.0404786
0.0362239
0.0318081
0.0272722
0.022667
0.0180456
0.0134619
0.00896905
0.00461723
0.000451658
-0.003489
-0.00717365
-0.0105791
-0.0136894
-0.0164954
-0.0189989
-0.0212188
-0.0231508
-0.0248095
-0.0262161
-0.0274087
-0.0284402
-0.0292364
-0.0293051
-0.0281357
0.048621
0.0491599
0.0474688
0.0445233
0.0412753
0.0379081
0.034378
0.0306763
0.0268323
0.0228871
0.0188866
0.0148803
0.0109198
0.00705656
0.00333885
-0.000190434
-0.0034956
-0.00654935
-0.00933314
-0.0118372
-0.0140602
-0.016008
-0.0176912
-0.0191245
-0.0203284
-0.0213435
-0.0222268
-0.0228887
-0.0227607
-0.0212704
0.0444387
0.0453501
0.0441129
0.0416601
0.0389113
0.0360405
0.0330027
0.0297865
0.0264169
0.0229302
0.0193679
0.0157766
0.0122061
0.00870733
0.00532932
0.00211663
-0.000892968
-0.00367
-0.00619417
-0.00845442
-0.0104484
-0.0121812
-0.0136639
-0.0149107
-0.0159416
-0.0167964
-0.0175326
-0.0180598
-0.0177982
-0.0161536
0.0413921
0.0424644
0.0415055
0.0394083
0.0370327
0.0345348
0.0318691
0.029024
0.0260211
0.022893
0.0196778
0.0164192
0.0131651
0.0099653
0.00686852
0.00391966
0.00115723
-0.00138843
-0.00369621
-0.00575438
-0.00756012
-0.00911833
-0.0104397
-0.0115382
-0.0124329
-0.0131617
-0.0137812
-0.0142069
-0.0138701
-0.0121567
0.0390988
0.0402204
0.0394388
0.0376073
0.0355183
0.0333075
0.0309305
0.028376
0.0256634
0.0228224
0.0198881
0.0169016
0.0139088
0.0109581
0.00809733
0.00537085
0.00281718
0.000466812
-0.00165886
-0.00354782
-0.00519696
-0.00661084
-0.00779982
-0.00877754
-0.00956206
-0.010189
-0.0107139
-0.0110614
-0.0106828
-0.00894128
0.0373029
0.0384241
0.0377569
0.0361299
0.0342685
0.0322871
0.0301419
0.0278228
0.0253475
0.0227429
0.0200418
0.0172831
0.0145107
0.0117715
0.00911216
0.00657626
0.00420185
0.00201921
4.96664e-05
-0.00169473
-0.00321071
-0.00450263
-0.00558057
-0.00645784
-0.00715166
-0.00769549
-0.0081439
-0.0084317
-0.00803276
-0.00628434
0.0358772
0.0369519
0.03636
0.0348924
0.033217
0.0314243
0.0294707
0.0273474
0.0250709
0.0226657
0.0201626
0.0175986
0.0150157
0.0124592
0.00997445
0.00760425
0.0053859
0.00334921
0.00151523
-0.000104109
-0.00150552
-0.00269322
-0.00367711
-0.00447026
-0.00508914
-0.00556516
-0.00595199
-0.00619472
-0.00578975
-0.00404534
0.0347089
0.03571
0.0351761
0.03384
0.0323176
0.0306835
0.0288922
0.0269357
0.0248294
0.022596
0.0202644
0.0178695
0.0154521
0.0130558
0.0107246
0.00850037
0.00641947
0.0045112
0.00279618
0.00128612
-1.57611e-05
-0.00111363
-0.00201723
-0.00273947
-0.00329615
-0.00371678
-0.00405409
-0.00426316
-0.00386187
-0.00212674
0.03373
0.0346378
0.0341449
0.0329319
0.0315369
0.0300376
0.0283869
0.0265756
0.0246179
0.0225353
0.0203546
0.0181094
0.0158387
0.0135848
0.0113903
0.00929606
0.00733757
0.00554341
0.00393378
0.00252005
0.00130534
0.000285487
-0.000549142
-0.00121131
-0.00171624
-0.00209164
-0.00238928
-0.00257367
-0.00218297
-0.000459586
0.0328941
0.0336904
0.0332259
0.0321306
0.0308511
0.0294661
0.0279389
0.0262565
0.0244312
0.0224829
0.0204374
0.0183266
0.0161879
0.0140622
0.0119909
0.0100138
0.00816539
0.00647364
0.00495818
0.00363007
0.00249226
0.00154059
0.000765525
0.000154426
-0.000307422
-0.000646027
-0.000912107
-0.00107902
-0.000703995
0.00100645
0.0321603
0.0328462
0.0323987
0.0314011
0.0302386
0.0289528
0.0275352
0.0259693
0.0242638
0.0224376
0.020515
0.0185265
0.0165081
0.0144993
0.0125405
0.01067
0.00892165
0.00732265
0.00589208
0.00464067
0.00357118
0.00267945
0.00195603
0.00138843
0.000962391
0.000653509
0.000412196
0.000256868
0.000612238
0.00230883
0.0315027
0.0320719
0.0316422
0.0307315
0.0296765
0.0284845
0.0271647
0.0257057
0.0241109
0.0223971
0.0205878
0.0187123
0.0168051
0.0149044
0.0130492
0.011277
0.00962058
0.0081064
0.00675304
0.00557087
0.00456248
0.00372374
0.00304527
0.00251473
0.0021183
0.00183309
0.00161074
0.00146206
0.00179447
0.0034758
0.0309027
0.031348
0.0309386
0.0301092
0.0291471
0.0280522
0.0268185
0.0254585
0.0239675
0.0223591
0.0206559
0.0188862
0.0170831
0.0152835
0.0135251
0.0118444
0.0102733
0.00883746
0.00755496
0.00643582
0.00548248
0.00469079
0.00405153
0.00355252
0.00318032
0.00291349
0.00270502
0.00255873
0.00286524
0.0045288
0.0303365
0.0306647
0.0302773
0.0295195
0.0286405
0.0276445
0.0264919
0.0252225
0.0238296
0.0223211
0.0207187
0.0190493
0.0173449
0.015641
0.0139742
0.0123798
0.0108887
0.00952599
0.00830915
0.00724788
0.00634447
0.0055948
0.00498978
0.00451743
0.0041647
0.00391151
0.00371232
0.00356457
0.00384237
0.005484
0.0297872
0.0300084
0.0296445
0.0289551
0.0281528
0.027246
0.0261799
0.0249923
0.0236929
0.0222808
0.0207751
0.0192022
0.0175926
0.0159806
0.0144014
0.0128892
0.0114741
0.0101804
0.00902506
0.0080174
0.0071596
0.00644759
0.00587246
0.00542241
0.0050848
0.00484084
0.00464659
0.00449381
0.00474006
0.00635331
0.0292448
0.0293667
0.0290289
0.0284074
0.0276747
0.0268464
0.0258761
0.0247644
0.0235539
0.0222356
0.0208241
0.0193449
0.0178276
0.0163047
0.0148105
0.0133778
0.0120358
0.010808
0.00971075
0.00875322
0.00793739
0.00725924
0.00671007
0.00627833
0.00595174
0.00571275
0.00551918
0.00535783
0.00556954
0.00714517
0.028702
0.0287283
0.028418
0.0278639
0.0272001
0.0264452
0.025569
0.0245356
0.0234093
0.022183
0.0208643
0.0194774
0.0180509
0.0166158
0.0152049
0.0138499
0.012579
0.0114149
0.0103733
0.00946312
0.00868616
0.00803852
0.00751168
0.0070944
0.00677478
0.00653647
0.00633923
0.00616566
0.00633954
0.00786494
0.0281514
0.0280836
0.0278038
0.0273167
0.0267215
0.0260383
0.0252494
0.0243032
0.0232554
0.0221201
0.0208941
0.0195992
0.018263
0.0169153
0.0155873
0.0143094
0.0131086
0.0120068
0.0110192
0.0101541
0.00941337
0.00879314
0.00828515
0.00787849
0.00756168
0.00731952
0.00711395
0.00692422
0.00705658
0.00851531
0.0275833
0.0274263
0.0271796
0.0267599
0.0262346
0.0256187
0.0249097
0.0240629
0.0230901
0.0220444
0.0209118
0.0197096
0.0184644
0.0172048
0.0159602
0.0147597
0.0136291
0.012589
0.0116543
0.0108326
0.0101258
0.00953006
0.0090374
0.00863733
0.00831885
0.0080679
0.00784879
0.00763848
0.00772513
0.00909659
0.026988
0.0267488
0.0265381
0.0261854
0.0257299
0.0251836
0.0245511
0.0238051
0.0229118
0.0219536
0.0209157
0.0198076
0.0186552
0.0174854
0.016326
0.0152042
0.0141446
0.0131667
0.0122843
0.0115048
0.0108298
0.0102556
0.00977457
0.00937666
0.00905147
0.00878611
0.00854756
0.00831154
0.00834766
0.00960694
0.0263554
0.026044
0.025873
0.0255877
0.0252024
0.0247275
0.0241711
0.0235221
0.0227186
0.0218448
0.0209033
0.0198922
0.0188352
0.0177581
0.0166865
0.015646
0.0146593
0.0137447
0.0129149
0.0121768
0.0115316
0.0109757
0.0105021
0.0101013
0.00976356
0.00947728
0.0092124
0.00894471
0.0089246
0.0100427
0.0256729
0.025304
0.0251772
0.0249607
0.0246474
0.0242475
0.0237666
0.0232066
0.0225072
0.0217146
0.0208722
0.0199619
0.0190041
0.0180236
0.0170439
0.0160884
0.0151776
0.0143283
0.013552
0.0128546
0.012237
0.011696
0.011225
0.0108152
0.010458
0.0101431
0.00984379
0.00953738
0.0094543
0.0103988
0.0249237
0.0245187
0.0244423
0.0242975
0.0240584
0.0237363
0.0233333
0.0228578
0.0222715
0.0215627
0.0208202
0.020015
0.0191613
0.0182826
0.0174002
0.0165346
0.015704
0.0149229
0.0142013
0.013544
0.0129517
0.0124213
0.0119469
0.011521
0.011136
0.0107834
0.0104401
0.0100867
0.00993263
0.0106692
0.0240859
0.0236747
0.0236565
0.0235884
0.0234281
0.0231868
0.0228656
0.0224765
0.0220028
0.0213878
0.0207454
0.0200501
0.0193062
0.0185357
0.0177571
0.0169876
0.0162423
0.0155331
0.0148677
0.0142498
0.0136795
0.0131542
0.0126692
0.0122184
0.0117957
0.0113947
0.0109966
0.0105871
0.0103529
0.0108477
0.0231388
0.0227667
0.0228133
0.0228253
0.022751
0.0225962
0.0223613
0.0220618
0.0216954
0.0211856
0.0206433
0.0200636
0.0194366
0.0187822
0.0181157
0.0174503
0.0167973
0.0161648
0.0155579
0.0149784
0.0144258
0.0138991
0.013395
0.0129087
0.0124364
0.0119745
0.0115091
0.0110336
0.010709
0.0109311
0.0220483
0.0218241
0.0219529
0.0220357
0.0220448
0.0219774
0.0218285
0.021615
0.0213457
0.0209514
0.0205052
0.0200459
0.0195443
0.0190173
0.0184766
0.0179301
0.0173832
0.0168388
0.0162978
0.0157588
0.0152202
0.0146858
0.0141523
0.0136167
0.0130788
0.0125388
0.0119898
0.0114342
0.0110012
0.0109191
0.0206055
0.0207891
0.0211039
0.0212578
0.0213335
0.0213417
0.0212703
0.02113
0.0209423
0.0206714
0.0203218
0.0199866
0.0196234
0.0192432
0.018852
0.0184497
0.0180328
0.0175963
0.0171345
0.0166425
0.0161194
0.0155644
0.0149841
0.0143778
0.0137504
0.0131078
0.0124509
0.0117908
0.0112141
0.0107972
0.018125
0.0189206
0.0197203
0.0201211
0.0203499
0.0204912
0.0205471
0.0205266
0.0204586
0.0203405
0.0201307
0.0199436
0.0197382
0.0195174
0.0192797
0.0190161
0.0187141
0.0183627
0.0179512
0.0174767
0.0169572
0.0163239
0.0156593
0.0149546
0.0142178
0.0134602
0.01269
0.0119217
0.0111954
0.010491
0.0142154
0.014808
0.0162763
0.0173612
0.0181476
0.0187725
0.0192622
0.0196281
0.019898
0.0200824
0.0201444
0.0201581
0.0200955
0.0199527
0.0197284
0.0194189
0.0190212
0.0185385
0.0179737
0.0173269
0.0165927
0.0158757
0.0151208
0.0143431
0.0135627
0.0127924
0.0120418
0.0113257
0.0106539
0.00997124
-0.0405225
-0.0325792
-0.0265811
-0.0217105
-0.0176901
-0.0143432
-0.0115197
-0.00911033
-0.00703193
-0.00522126
-0.00362963
-0.00221911
-0.000959657
0.000172759
0.00119764
0.00213094
0.00298581
0.00377303
0.00450138
0.0051777
0.00580695
0.00639211
0.00693409
0.00743159
0.00788073
0.00827318
0.00859902
0.00885599
0.00904572
0.00909182
-0.0406737
-0.0326032
-0.0263104
-0.0213099