/*--------------------------------*- C++ -*----------------------------------*\
  =========                 |
  \\      /  F ield         | OpenFOAM: The Open Source CFD Toolbox
   \\    /   O peration     | Website:  https://openfoam.org
    \\  /    A nd           | Version:  12
     \\/     M anipulation  |
\*---------------------------------------------------------------------------*/
FoamFile
{
    format      ascii;
    class       surfaceScalarField;
    location    "360";
    object      phi;
}
// * * * * * * * * * * * * * * * * * * * * * * * * * * * * * * * * * * * * * //

dimensions      [0 3 -1 0 0 0 0];

internalField   nonuniform List<scalar> 
13275
(
0.369023
-0.00462582
0.369481
-0.0114853
0.369794
-0.015406
0.369909
-0.0173604
-0.0180303
0.369849
0.351098
-0.00489891
0.35146
-0.0118473
0.351681
-0.0156269
0.351643
-0.0173215
-0.0176327
0.351245
0.334002
-0.00502181
0.334077
-0.0119231
0.333968
-0.0155177
0.333634
-0.0169874
-0.0170942
0.333096
0.317721
-0.00499238
0.317511
-0.0117123
0.317103
-0.01511
0.316533
-0.0164173
-0.0164198
0.315858
0.302245
-0.00483559
0.30179
-0.0112572
0.301125
-0.0144448
0.300336
-0.0156286
-0.015583
0.299499
0.287534
-0.0045754
0.286872
-0.0105954
0.285978
-0.0135508
0.284977
-0.0146276
-0.014564
0.283958
0.273546
-0.00422911
0.272706
-0.0097555
0.271606
-0.0124508
0.270403
-0.013424
-0.0133583
0.269197
0.260244
-0.00381044
0.259251
-0.00876335
0.25797
-0.0111695
0.256582
-0.0120355
-0.0119757
0.255199
0.247593
-0.0033325
0.246476
-0.00764598
0.245043
-0.00973691
0.243497
-0.0104893
-0.010439
0.24196
0.235564
-0.00280904
0.234351
-0.00643298
0.232802
-0.00818783
0.231133
-0.00882028
-0.00878034
0.229475
0.224129
-0.00225445
0.222852
-0.00515576
0.221225
-0.00656061
0.219472
-0.00706796
-0.00703802
0.21773
0.213259
-0.00168316
0.211949
-0.0038457
0.210283
-0.0048941
0.208488
-0.00527334
-0.00525232
0.206702
0.202927
-0.00110906
0.201614
-0.00253233
0.199945
-0.00322507
0.198147
-0.00347541
-0.00346203
0.196357
0.193107
-0.000544707
0.191817
-0.0012421
0.190177
-0.0015858
0.18841
-0.00170845
-0.00170175
0.18665
0.183771
-8.35208e-08
0.18253
-2.03288e-07
0.180944
-2.6891e-07
0.179236
-2.9502e-07
-2.96624e-07
0.177534
0.183771
0.00054454
0.18253
0.0012417
0.180944
0.00158526
0.179236
0.00170786
0.00170115
0.177534
0.193107
0.00110889
0.191817
0.00253192
0.190177
0.00322454
0.18841
0.00347482
0.00346144
0.18665
0.202927
0.001683
0.201614
0.0038453
0.199945
0.00489357
0.198147
0.00527275
0.00525173
0.196357
0.213259
0.00225428
0.211949
0.00515535
0.210283
0.00656008
0.208488
0.00706737
0.00703744
0.206702
0.224129
0.00280888
0.222852
0.00643258
0.221225
0.00818731
0.219472
0.0088197
0.00877976
0.21773
0.235564
0.00333234
0.234351
0.00764558
0.232802
0.00973638
0.231133
0.0104888
0.0104384
0.229475
0.247593
0.00381028
0.246476
0.00876296
0.245043
0.011169
0.243497
0.012035
0.0119752
0.24196
0.260244
0.00422895
0.259251
0.0097551
0.25797
0.0124502
0.256582
0.0134234
0.0133577
0.255199
0.273546
0.00457525
0.272706
0.010595
0.271606
0.0135502
0.270403
0.014627
0.0145635
0.269197
0.287534
0.00483544
0.286872
0.0112569
0.285978
0.0144443
0.284977
0.015628
0.0155825
0.283958
0.302245
0.00499223
0.30179
0.0117119
0.301125
0.0151095
0.300336
0.0164168
0.0164193
0.299499
0.317721
0.00502165
0.317511
0.0119227
0.317103
0.0155172
0.316533
0.0169869
0.0170936
0.315858
0.334002
0.00489877
0.334077
0.011847
0.333968
0.0156264
0.333634
0.017321
0.0176321
0.333096
0.351098
0.00462568
0.35146
0.0114849
0.351681
0.0154055
0.351643
0.0173598
0.0180298
0.351245
0.369023
0.369481
0.369794
0.369909
0.369849
0.197357
-0.0505304
-0.197397
0.196944
-0.0577708
0.195919
-0.0640419
0.194264
-0.069559
0.192035
-0.074287
0.189302
-0.0781601
0.186137
-0.0810876
0.182617
-0.0829464
0.178829
-0.0835924
0.174887
-0.0829762
0.170876
-0.0809016
0.166952
-0.0772311
0.163258
-0.072048
0.15994
-0.0654428
0.157128
-0.057594
0.154927
-0.0487571
0.153408
-0.0392441
0.152606
-0.0293927
0.152514
-0.0195388
0.153091
-0.00999048
0.154249
-0.000976208
0.15595
0.00729076
0.158083
0.0147227
0.160556
0.0212267
0.163282
0.0267836
0.16618
0.0314128
0.169182
0.0351602
0.172224
0.0380873
0.175248
0.0402645
0.0417571
0.178164
0.194725
-0.0506494
-0.194606
0.194061
-0.0571067
0.192707
-0.0626879
0.190763
-0.0676147
0.188306
-0.07183
0.185409
-0.0752629
0.182138
-0.0778169
0.178564
-0.0793719
0.17477
-0.0797993
0.170856
-0.0790615
0.166899
-0.0769449
0.163048
-0.0733798
0.159434
-0.0684344
0.156189
-0.0621973
0.15343
-0.054835
0.151253
-0.0465811
0.149726
-0.037717
0.148881
-0.028547
0.148713
-0.0193713
0.149185
-0.0104618
0.150252
-0.00204395
0.151826
0.00571718
0.153838
0.0127104
0.1562
0.018865
0.158827
0.0241565
0.161643
0.0285969
0.16458
0.0322231
0.167581
0.0350863
0.170589
0.0372561
0.0388654
0.173481
0.191408
-0.0503903
-0.191668
0.190441
-0.0561396
0.188874
-0.0611203
0.186784
-0.0655254
0.18424
-0.0692855
0.1813
-0.0723225
0.178021
-0.074538
0.174468
-0.0758189
0.170726
-0.0760574
0.166873
-0.0752088
0.162994
-0.0730655
0.159225
-0.0696109
0.155688
-0.0648974
0.152503
-0.0590129
0.149782
-0.0521134
0.147613
-0.0444128
0.146062
-0.0361658
0.145161
-0.0276455
0.14491
-0.0191203
0.145281
-0.0108333
0.146224
-0.00298716
0.147673
0.00426814
0.149556
0.0108278
0.151792
0.0166288
0.154302
0.0216463
0.157012
0.0258874
0.159854
0.0293809
0.162772
0.0321681
0.165715
0.0343136
0.0360198
0.16856
0.187981
-0.0497898
-0.188582
0.186757
-0.0549153
0.185007
-0.0593702
0.182791
-0.0633097
0.180166
-0.0666605
0.177184
-0.0693405
0.173899
-0.0712525
0.170368
-0.0722886
0.16668
-0.0723686
0.162891
-0.0714203
0.159094
-0.0692686
0.15541
-0.065927
0.15195
-0.0614373
0.148824
-0.0558867
0.146133
-0.0494222
0.143961
-0.0422405
0.142368
-0.0345732
0.141389
-0.0266662
0.141028
-0.0187598
0.141266
-0.0110708
0.142059
-0.00378006
0.143351
0.00297586
0.145076
0.00910257
0.147162
0.0145431
0.149535
0.0192739
0.152123
0.0232992
0.154862
0.026642
0.157695
0.0293347
0.160575
0.031434
0.0332092
0.163385
0.184473
-0.0488975
-0.185365
0.183024
-0.0534661
0.181106
-0.0574522
0.178771
-0.0609753
0.17607
-0.063959
0.173049
-0.0663194
0.169758
-0.0679614
0.166253
-0.0687842
0.162615
-0.0687307
0.15889
-0.0676949
0.155173
-0.0655522
0.151571
-0.0623247
0.148184
-0.0580501
0.145112
-0.0528146
0.142447
-0.046757
0.140266
-0.0400597
0.138627
-0.0329341
0.137563
-0.0256027
0.137084
-0.0182811
0.137177
-0.0111629
0.137806
-0.00440916
0.138924
0.00185779
0.140473
0.0075537
0.142388
0.0126281
0.144602
0.0170599
0.147049
0.0208521
0.149667
0.0240237
0.152402
0.0266001
0.155206
0.0286293
0.0304375
0.157978
0.180853
-0.0477422
-0.182008
0.179199
-0.0518126
0.17713
-0.0553826
0.17469
-0.0585353
0.171922
-0.0611915
0.16887
-0.0632667
0.165578
-0.0646701
0.162104
-0.0653095
0.158513
-0.0651399
0.15485
-0.0640315
0.151209
-0.0619115
0.147683
-0.0587986
0.144363
-0.0547306
0.141341
-0.0497924
0.1387
-0.0441158
0.136511
-0.0378705
0.134827
-0.0312506
0.133683
-0.0244582
0.133089
-0.0176874
0.133037
-0.0111115
0.133502
-0.00487337
0.134441
0.000918311
0.135806
0.00618923
0.137538
0.0108955
0.139579
0.0150193
0.141867
0.0185637
0.144345
0.0215453
0.146961
0.0239844
0.14967
0.0259208
0.0277229
0.152384
0.177101
-0.0463484
-0.178494
0.175264
-0.0499761
0.173061
-0.0531799
0.17053
-0.0560044
0.167708
-0.0583689
0.164632
-0.0601906
0.161346
-0.0613838
0.157903
-0.0618669
0.154356
-0.0615926
0.150753
-0.0604287
0.147183
-0.0583415
0.143728
-0.0553434
0.140471
-0.0514741
0.137496
-0.0468172
0.134878
-0.0414982
0.132684
-0.0356758
0.130962
-0.0295286
0.129745
-0.023241
0.129045
-0.0169883
0.12886
-0.0109256
0.129166
-0.00517981
0.129931
0.000153297
0.131111
0.00500886
0.132657
0.00934948
0.134516
0.0131608
0.136633
0.0164471
0.138955
0.0192234
0.141432
0.0215068
0.144022
0.0233306
0.0250892
0.146656
0.173207
-0.0447424
-0.174812
0.17121
-0.0479796
0.168892
-0.0508622
0.166284
-0.0533964
0.163417
-0.0555016
0.160325
-0.0570982
0.157046
-0.0581055
0.153636
-0.0584565
0.15013
-0.0580866
0.146586
-0.0568846
0.143082
-0.0548375
0.139693
-0.0519543
0.136495
-0.0482768
0.133566
-0.0438874
0.130973
-0.0389058
0.128778
-0.0334803
0.127025
-0.0277763
0.125747
-0.0219622
0.124955
-0.0161966
0.124648
-0.0106185
0.124809
-0.00534064
0.125409
-0.000447105
0.126412
0.00400608
0.127774
0.00798761
0.129448
0.0114868
0.131385
0.0145092
0.133539
0.0170695
0.135863
0.0191829
0.138316
0.0208781
0.0225598
0.140845
0.169166
-0.0429516
-0.170956
0.167032
-0.045846
0.164616
-0.0484465
0.161943
-0.0507236
0.15904
-0.0525985
0.155937
-0.0539954
0.152671
-0.0548386
0.14929
-0.0550755
0.145824
-0.0546214
0.142337
-0.0533968
0.138895
-0.0513956
0.135568
-0.0486276
0.132428
-0.0451364
0.129543
-0.0410028
0.126978
-0.036341
0.124788
-0.0312902
0.123015
-0.0260031
0.121687
-0.020634
0.120817
-0.0153266
0.120404
-0.0102056
0.120434
-0.00537108
0.120884
-0.00089659
0.12172
0.00316982
0.122905
0.00680245
0.124398
0.00999408
0.126155
0.0127518
0.128134
0.0150903
0.130294
0.0170237
0.132594
0.0185782
0.0201557
0.134998
0.164973
-0.0410027
-0.166922
0.162724
-0.0435965
0.160226
-0.0459487
0.1575
-0.0479976
0.154569
-0.0496672
0.15146
-0.0508868
0.148209
-0.0515874
0.144856
-0.0517224
0.141431
-0.0511969
0.137997
-0.0499624
0.134614
-0.048013
0.131347
-0.045361
0.128263
-0.0420517
0.125424
-0.0381643
0.122891
-0.0338076
0.120713
-0.029112
0.118928
-0.0242188
0.117564
-0.0192691
0.11663
-0.0143934
0.116128
-0.00970341
0.116045
-0.00528792
0.11636
-0.00121114
0.117043
0.00248597
0.118063
0.00578275
0.119382
0.00867507
0.120962
0.0111716
0.122766
0.0132869
0.124754
0.0150352
0.126891
0.0164411
0.0178937
0.129153
0.160626
-0.0389209
-0.162708
0.158281
-0.041251
0.155715
-0.0433831
0.152946
-0.0452287
0.149994
-0.046715
0.146884
-0.0477769
0.143652
-0.0483547
0.140325
-0.048396
0.136942
-0.0478136
0.133559
-0.0465798
0.130234
-0.0446877
0.127026
-0.0421532
0.123997
-0.0390229
0.121207
-0.035374
0.11871
-0.0313101
0.116551
-0.026953
0.114765
-0.0224334
0.113376
-0.0178804
0.112395
-0.013412
0.11182
-0.0091285
0.111641
-0.00510846
0.111837
-0.00140787
0.112385
0.00193861
0.113253
0.00491466
0.114409
0.00751887
0.11582
0.00976112
0.11745
0.0116563
0.119267
0.0132185
0.121236
0.0144721
0.0157855
0.123344
0.15612
-0.0367297
-0.158311
0.153696
-0.0388275
0.151077
-0.0407634
0.148275
-0.042427
0.145309
-0.0437494
0.142202
-0.0446699
0.138988
-0.0451409
0.13569
-0.0450978
0.13235
-0.0444729
0.129018
-0.0432486
0.12575
-0.0414193
0.122601
-0.0390044
0.11963
-0.0360513
0.116891
-0.0326349
0.114434
-0.0288534
0.112302
-0.0248206
0.110525
-0.0206569
0.109125
-0.0164801
0.10811
-0.0123969
0.107478
-0.00849696
0.107219
-0.00484982
0.107316
-0.0015041
0.107743
0.00151098
0.108475
0.00418282
0.109482
0.00651227
0.110733
0.00851018
0.112198
0.0101915
0.113845
0.0115706
0.115646
0.0126717
0.0138381
0.117593
0.15145
-0.0344505
-0.153729
0.148965
-0.0363422
0.146303
-0.0381016
0.143477
-0.0396013
0.140504
-0.0407765
0.137406
-0.0415722
0.134213
-0.0419475
0.130945
-0.0418302
0.127648
-0.0411758
0.124369
-0.0399693
0.121158
-0.0382087
0.11807
-0.0359161
0.115158
-0.0331393
0.112474
-0.0299508
0.110064
-0.0264433
0.107966
-0.0227225
0.106208
-0.0188991
0.104808
-0.0150801
0.103773
-0.0113618
0.1031
-0.00782412
0.102778
-0.00452842
0.102791
-0.00151682
0.103116
0.0011862
0.103728
0.00357117
0.104599
0.00564069
0.105703
0.00740628
0.107012
0.00888283
0.108498
0.0100847
0.110133
0.0110365
0.0120534
0.111917
0.14661
-0.0321028
-0.148958
0.144078
-0.0338094
0.141385
-0.0354091
0.138544
-0.0367606
0.135571
-0.037803
0.132488
-0.0384893
0.129317
-0.0387761
0.126083
-0.038597
0.122832
-0.0379243
0.119606
-0.0367438
0.116455
-0.0350578
0.11343
-0.0328907
0.110581
-0.0302903
0.107957
-0.0273263
0.105599
-0.0240856
0.103543
-0.0206662
0.101813
-0.0171692
0.100424
-0.0136915
0.099382
-0.0103195
0.0986822
-0.00712433
0.0983135
-0.00415977
0.098259
-0.00146225
0.0984973
0.000947828
0.0990049
0.00306358
0.0997567
0.00488893
0.100727
0.0064357
0.101892
0.00771853
0.103225
0.00875174
0.104701
0.00956012
0.0104295
0.106325
0.141593
-0.0297038
-0.143992
0.139026
-0.0312426
0.136314
-0.0326972
0.133468
-0.033914
0.1305
-0.0348359
0.127436
-0.035425
0.124291
-0.0356309
0.121097
-0.035403
0.117894
-0.0347216
0.114726
-0.0335752
0.111638
-0.0319699
0.108679
-0.0299319
0.105897
-0.0275087
0.103338
-0.0247666
0.101039
-0.0217868
0.0990319
-0.0186594
0.0973391
-0.0154763
0.0959725
-0.0123249
0.094935
-0.0092821
0.0942216
-0.00641087
0.0938201
-0.00375827
0.0937134
-0.00135561
0.0938811
0.000780206
0.0943002
0.00264438
0.0949474
0.00424177
0.0957989
0.00558418
0.0968317
0.00668577
0.0980228
0.00756065
0.0993494
0.00823354
0.00896102
0.100818
0.136386
-0.0272687
-0.138821
0.133799
-0.0286554
0.131079
-0.0299769
0.128235
-0.0310702
0.125283
-0.0318836
0.122241
-0.0323836
0.119128
-0.0325176
0.115978
-0.0322528
0.112828
-0.031572
0.109721
-0.0304678
0.1067
-0.0289493
0.103813
-0.0270444
0.101104
-0.0247996
0.0986145
-0.0222775
0.0963812
-0.0195535
0.0944315
-0.0167097
0.0927843
-0.0138292
0.0914495
-0.01099
0.0904279
-0.00826053
0.0897129
-0.00569591
0.0892918
-0.00333715
0.0891472
-0.00121097
0.0892587
0.000668681
0.0896044
0.00229867
0.0901618
0.00368441
0.0909085
0.00483741
0.0918232
0.00577115
0.0928845
0.00649935
0.0940717
0.00704627
0.00764026
0.0953925
0.130978
-0.0248119
-0.133434
0.128384
-0.0260615
0.125666
-0.0272594
0.122834
-0.0282381
0.119904
-0.0289536
0.116891
-0.0293704
0.113817
-0.0294438
0.110717
-0.0291524
0.107626
-0.0284812
0.104585
-0.0274269
0.101637
-0.0260015
0.0988267
-0.0242339
0.096196
-0.0221689
0.0937839
-0.0198654
0.0916229
-0.0173924
0.0897378
-0.0148245
0.0881446
-0.012236
0.0868507
-0.00969617
0.0858552
-0.00726495
0.0851499
-0.0049906
0.0847211
-0.00290844
0.0845514
-0.0010412
0.0846203
0.000599756
0.0849064
0.00201254
0.085388
0.0032028
0.0860439
0.00418153
0.0868537
0.00496133
0.0877978
0.0055553
0.0888571
0.00598694
0.00645776
0.0900396
0.125351
-0.0223482
-0.127815
0.122764
-0.0234743
0.12006
-0.0245554
0.11725
-0.0254277
0.114349
-0.0260533
0.111372
-0.0263932
0.108346
-0.0264174
0.105302
-0.0261087
0.102277
-0.0254558
0.0993089
-0.0244592
0.0964406
-0.0231333
0.0937137
-0.021507
0.0911682
-0.0196234
0.0888399
-0.0175371
0.0867583
-0.0153108
0.0849452
-0.0130115
0.083414
-0.0107049
0.0821697
-0.00845187
0.0812094
-0.0063047
0.0805239
-0.00430502
0.0800985
-0.00248304
0.0799152
-0.0008579
0.0799537
0.000561168
0.0801931
0.00177323
0.080612
0.0027839
0.0811901
0.00360342
0.081908
0.00424337
0.0827473
0.00471608
0.0836903
0.00504386
0.00540315
0.0847449
0.119487
-0.019893
-0.121942
0.116919
-0.0209063
0.11424
-0.0218763
0.111462
-0.02265
0.108599
-0.0231901
0.105668
-0.0234622
0.102698
-0.0234471
0.0997191
-0.0231301
0.0967673
-0.022504
0.0938808
-0.0215727
0.0910997
-0.0203522
0.0884639
-0.0188713
0.086011
-0.0171705
0.0837738
-0.0152999
0.0817789
-0.0133159
0.0800453
-0.0112779
0.0785838
-0.00924336
0.0773971
-0.00726518
0.0764807
-0.0053883
0.0758239
-0.00364827
0.0754116
-0.00207067
0.0752251
-0.000671466
0.0752444
0.000541924
0.0754484
0.00156922
0.0758165
0.00241579
0.0763289
0.00309096
0.0769671
0.00360516
0.0777135
0.00396976
0.0785518
0.00420557
0.0044658
0.0794891
0.113359
-0.0174626
-0.11579
0.110823
-0.0183702
0.108181
-0.0192341
0.105446
-0.0199151
0.102631
-0.0203747
0.0997571
-0.0205887
0.0968532
-0.0205431
0.0939495
-0.0202264
0.0910808
-0.0196354
0.0882847
-0.0187765
0.0855997
-0.0176672
0.0830636
-0.0163352
0.0807114
-0.0148183
0.0785732
-0.0131616
0.0766726
-0.0114154
0.075026
-0.0096312
0.0736415
-0.00785893
0.07252
-0.00614366
0.0716553
-0.00452355
0.0710355
-0.00302854
0.0706448
-0.00167999
0.0704644
-0.000491064
0.070474
0.000532321
0.0706529
0.00139031
0.0709809
0.00208786
0.0714386
0.00263323
0.0720082
0.00303562
0.0726726
0.00330528
0.073417
0.00346125
0.00363533
0.0742474
0.106932
-0.0150731
-0.109321
0.104441
-0.0158797
0.10185
-0.0166428
0.0991697
-0.0172347
0.0964157
-0.0176207
0.0936122
-0.0177853
0.0907863
-0.0177172
0.0879689
-0.0174091
0.0851945
-0.0168609
0.0824994
-0.0160815
0.0799207
-0.0150884
0.077494
-0.0139085
0.0752515
-0.0125758
0.0732208
-0.0111308
0.0714225
-0.00961713
0.0698703
-0.00807903
0.0685702
-0.00655882
0.067521
-0.0050944
0.066715
-0.00371757
0.0661396
-0.0024531
0.0657781
-0.00131856
0.0656117
-0.00032465
0.0656201
0.000523972
0.0657827
0.00122768
0.0660797
0.00179086
0.0664923
0.00222064
0.067003
0.00252492
0.0675956
0.00271272
0.0682557
0.00280109
0.00290213
0.0689889
0.100159
-0.0127423
-0.10249
0.0977309
-0.0134517
0.0952055
-0.0141173
0.0925939
-0.0146231
0.0899163
-0.0149431
0.0871968
-0.0150657
0.0844626
-0.0149831
0.081745
-0.0146914
0.0790777
-0.0141937
0.0764961
-0.0134999
0.0740354
-0.0126277
0.0717289
-0.011602
0.0696065
-0.0104534
0.0676924
-0.00921681
0.0660049
-0.00792964
0.064555
-0.00662908
0.0633464
-0.00535021
0.0623761
-0.00412416
0.0616354
-0.00297687
0.0611107
-0.00192841
0.0607851
-0.000992918
0.0606394
-0.000178954
0.0606535
0.000509843
0.0608073
0.00107393
0.0610811
0.00151703
0.0614566
0.00184511
0.0619168
0.00206472
0.062446
0.0021836
0.0630305
0.00221658
0.0022577
0.0636749
0.0929796
-0.0104901
-0.0952318
0.0906326
-0.0111047
0.0881892
-0.0116739
0.0856648
-0.0120987
0.0830808
-0.0123592
0.0804619
-0.0124467
0.0778358
-0.012357
0.0752338
-0.0120894
0.0726889
-0.0116488
0.0702354
-0.0110463
0.0679064
-0.0102987
0.0657329
-0.00942848
0.0637418
-0.00846228
0.0619548
-0.00742983
0.0603873
-0.00636208
0.0590477
-0.00528947
0.0579378
-0.00424029
0.057053
-0.0032394
0.0563835
-0.00230738
0.0559151
-0.00146004
0.0556307
-0.000708493
0.0555112
-5.94243e-05
0.0555367
0.000484345
0.0556874
0.000923239
0.0559441
0.00126027
0.056289
0.00150024
0.0567053
0.00164837
0.0571779
0.00171106
0.0576936
0.00170083
0.00169512
0.0582562
0.0853096
-0.00833931
-0.0874604
0.0830638
-0.00885887
0.0807239
-0.00933408
0.0783079
-0.0096827
0.075838
-0.00988929
0.0733397
-0.00994843
0.0708415
-0.00985878
0.0683743
-0.00962223
0.0659706
-0.00924508
0.0636627
-0.00873841
0.0614817
-0.00811783
0.0594561
-0.00740287
0.0576099
-0.00661606
0.0559618
-0.00578172
0.0545244
-0.00492469
0.0533039
-0.00406895
0.0523001
-0.00323649
0.0515071
-0.00244644
0.0509143
-0.00171451
0.050507
-0.00105275
0.0502681
-0.00046958
0.0501787
2.98934e-05
0.0502196
0.00044351
0.0503712
0.000771576
0.0506151
0.00101639
0.0509337
0.00118161
0.0513109
0.00127123
0.0517316
0.00129029
0.0521835
0.00124897
0.00120939
0.0526692
0.0770272
-0.00631568
-0.0790508
0.0749086
-0.00674034
0.0726989
-0.00712432
0.070417
-0.00740078
0.0680866
-0.00755888
0.0657342
-0.00759607
0.0633887
-0.00751332
0.0610807
-0.00731418
0.0588412
-0.0070056
0.0567008
-0.00659805
0.0546882
-0.00610522
0.0528288
-0.00554344
0.0511436
-0.00493085
0.0496484
-0.00428649
0.048353
-0.00362932
0.0472614
-0.00297732
0.0463716
-0.00234674
0.0456767
-0.00175156
0.0451654
-0.00120319
0.044823
-0.000710342
0.0446326
-0.000279166
0.0445759
8.65923e-05
0.0446341
0.000385285
0.0447886
0.000617055
0.0450215
0.000783508
0.0453159
0.00088725
0.045656
0.000931143
0.0460273
0.000918956
0.0464177
0.000858555
0.000797935
0.0468292
0.0679537
-0.00445251
-0.0698168
0.0659963
-0.00478297
0.0639497
-0.00507777
0.0618351
-0.00528617
0.0596776
-0.00540139
0.0575046
-0.00542303
0.0553448
-0.00535351
0.0532278
-0.00519719
0.0511831
-0.00496085
0.0492387
-0.00465369
0.0474205
-0.00428699
0.0457506
-0.00387355
0.0442468
-0.00342707
0.0429218
-0.00296148
0.0417828
-0.0024903
0.0408315
-0.00202605
0.0400646
-0.00157987
0.0394743
-0.00116124
0.039049
-0.000777842
0.0387742
-0.000435581
0.0386337
-0.000138651
0.03861
0.000110311
0.0386852
0.000310056
0.0388417
0.00046054
0.0390625
0.000562734
0.0393314
0.000618317
0.0396334
0.000629173
0.0399544
0.000597944
0.0402827
0.000530291
0.000461211
0.0406194
0.0578098
-0.00279381
-0.0594685
0.0560583
-0.00303149
0.0542209
-0.00324037
0.0523206
-0.00338582
0.0503835
-0.00346428
0.048437
-0.00347658
0.0465092
-0.00342567
0.0446278
-0.00331585
0.0428199
-0.00315298
0.0411107
-0.00294441
0.0395222
-0.00269857
0.0380733
-0.00242458
0.036778
-0.0021318
0.0356459
-0.00182941
0.0346816
-0.001526
0.0338849
-0.00122936
0.0332513
-0.000946267
0.0327725
-0.000682414
0.0324371
-0.000442417
0.0322313
-0.000229849
0.03214
-4.7314e-05
0.0321469
0.000103449
0.0322354
0.000221513
0.0323893
0.000306658
0.0325927
0.000359302
0.0328307
0.00038034
0.033089
0.000370851
0.0333544
0.000332536
0.0336157
0.000269061
0.000203485
0.0338734
0.046132
-0.00140447
-0.0475214
0.0446543
-0.00155382
0.0430969
-0.00168288
0.0414832
-0.00177219
0.0398393
-0.00182038
0.0381914
-0.00182862
0.0365652
-0.00179954
0.034986
-0.00173663
0.0334773
-0.00164423
0.0320602
-0.00152732
0.0307529
-0.00139125
0.0295698
-0.0012415
0.0285214
-0.00108339
0.0276139
-0.0009219
0.0268494
-0.0007615
0.0262261
-0.000606101
0.0257389
-0.000459018
0.0253795
-0.000323004
0.0251373
-0.000200302
0.0250002
-9.26994e-05
0.0249544
-1.52798e-06
0.0249856
7.2223e-05
0.0250793
0.000127871
0.0252208
0.000165097
0.0253962
0.000183917
0.025592
0.000184604
0.0257952
0.000167607
0.0259939
0.000133859
0.0261776
8.53368e-05
3.44208e-05
0.0263467
0.0320925
-0.000398926
-0.033098
0.0310085
-0.000469871
0.0298554
-0.000529737
0.0286539
-0.000570759
0.027427
-0.000593425
0.0261975
-0.000599087
0.0249876
-0.000589665
0.0238182
-0.00056727
0.0227081
-0.000534155
0.0216735
-0.000492641
0.0207272
-0.00044501
0.0198791
-0.000393411
0.0191355
-0.000339785
0.0184994
-0.000285823
0.0179709
-0.000232953
0.0175472
-0.000182356
0.0172231
-0.000134995
0.0169918
-9.16599e-05
0.0168445
-5.3012e-05
0.0167715
-1.97154e-05
0.0167624
7.59145e-06
0.0168049
2.97411e-05
0.0168877
4.5011e-05
0.0169993
5.35802e-05
0.0171279
5.52828e-05
0.0172625
4.99833e-05
0.0173926
3.75629e-05
0.0175084
1.80079e-05
0.0176021
-8.33327e-06
-3.52816e-05
0.0176718
0.014156
-0.014555
0.0136862
0.0131564
0.0125857
0.0119922
0.0113932
0.0108035
0.0102362
0.00970206
0.00920942
0.00876441
0.008371
0.00803121
0.00774539
0.00751244
0.00733008
0.00719509
0.00710343
0.00705042
0.0070307
0.00703829
0.00706803
0.00711304
0.00716662
0.00722191
0.00727189
0.00730945
0.00732746
0.00731913
0.00728385
0.351225
-0.178773
0.333837
-0.177218
0.317076
-0.174907
0.300819
-0.172324
0.28496
-0.169506
0.269412
-0.166461
0.254122
-0.163204
0.239057
-0.159748
0.224202
-0.156101
0.209551
-0.152271
0.195105
-0.148262
0.180874
-0.14408
0.166872
-0.139727
0.153117
-0.135202
0.139629
-0.130504
0.126435
-0.125628
0.113563
-0.120562
0.101044
-0.115296
0.0889119
-0.10981
0.0772043
-0.104082
0.0659635
-0.0980805
0.0552378
-0.091764
0.045083
-0.085077
0.0355657
-0.077943
0.0267681
-0.0702533
0.018798
-0.0618467
0.0118051
-0.0524756
0.00601771
-0.041734
0.00183769
-0.028918
-0.0127173
0.334628
-0.162156
0.318167
-0.160757
0.302124
-0.158864
0.286431
-0.156632
0.27103
-0.154105
0.255887
-0.151318
0.240982
-0.148299
0.226303
-0.145069
0.211848
-0.141646
0.197618
-0.138042
0.183624
-0.134268
0.169877
-0.130333
0.156393
-0.126243
0.143191
-0.122001
0.130292
-0.117605
0.117719
-0.113054
0.105496
-0.108339
0.0936505
-0.10345
0.082213
-0.0983725
0.0712162
-0.0930852
0.0606968
-0.0875612
0.050697
-0.0817642
0.0412657
-0.0756457
0.0324617
-0.069139
0.0243582
-0.0621497
0.0170517
-0.0545401
0.010677
-0.0461009
0.00543846
-0.0364955
0.00167964
-0.0251592
-0.0110376
0.317358
-0.146419
0.301796
-0.145194
0.28649
-0.143558
0.271431
-0.141573
0.256605
-0.139278
0.242002
-0.136715
0.227619
-0.133916
0.213457
-0.130907
0.199521
-0.12771
0.185823
-0.124343
0.172374
-0.12082
0.159192
-0.117151
0.146292
-0.113344
0.133694
-0.109403
0.121418
-0.105329
0.109484
-0.10112
0.0979166
-0.0967715
0.0867392
-0.0922731
0.0759791
-0.0876124
0.0656655
-0.0827716
0.0558312
-0.0777269
0.0465139
-0.0724469
0.0377572
-0.0668891
0.029614
-0.0609958
0.0221504
-0.0546861
0.0154532
-0.047843
0.00964386
-0.0402915
0.00490315
-0.0317548
0.00152384
-0.0217798
-0.00951379
0.300886
-0.131447
0.286051
-0.130359
0.271388
-0.128895
0.256907
-0.127092
0.242617
-0.124988
0.228526
-0.122625
0.214647
-0.120036
0.200989
-0.11725
0.187568
-0.114289
0.174398
-0.111173
0.161495
-0.107917
0.148877
-0.104532
0.13656
-0.101027
0.124562
-0.0974049
0.112902
-0.0936691
0.1016
-0.0898177
0.0906745
-0.0858463
0.0801488
-0.0817474
0.0700461
-0.0775098
0.0603926
-0.0731181
0.0512174
-0.0685517
0.0425538
-0.0637833
0.034441
-0.0587763
0.0269264
-0.0534812
0.0200694
-0.0478291
0.0139482
-0.0417218
0.00867053
-0.0350139
0.00439473
-0.027479
0.00136773
-0.0187528
-0.00814606
0.285161
-0.117108
0.270923
-0.116121
0.256815
-0.114787
0.242859
-0.113135
0.229076
-0.111205
0.215486
-0.109035
0.202108
-0.106658
0.188961
-0.104102
0.176061
-0.101389
0.163427
-0.0985391
0.151076
-0.0955656
0.139023
-0.0924801
0.127287
-0.0892905
0.115884
-0.0860016
0.10483
-0.0826153
0.0941434
-0.0791309
0.0838419
-0.0755448
0.0739449
-0.0718505
0.0644735
-0.0680383
0.0554506
-0.0640951
0.046902
-0.0600031
0.0388576
-0.0557389
0.0313523
-0.051271
0.0244286
-0.0465575
0.0181398
-0.0415403
0.0125554
-0.0361374
0.00777062
-0.0302291
0.00392228
-0.0236306
0.00121781
-0.0160484
-0.00692825
0.270158
-0.103308
0.256441
-0.102404
0.242837
-0.101183
0.229377
-0.0996748
0.216087
-0.0979157
0.202994
-0.0959418
0.19012
-0.093784
0.177486
-0.0914681
0.165112
-0.0890153
0.153016
-0.0864429
0.141214
-0.0837644
0.129724
-0.08099
0.118561
-0.0781272
0.10774
-0.0751803
0.0972757
-0.0721513
0.0871844
-0.0690397
0.0774821
-0.0658425
0.0681857
-0.0625541
0.0593137
-0.0591664
0.0508867
-0.0556681
0.0429274
-0.0520439
0.0354625
-0.048274
0.0285233
-0.0443318
0.0221476
-0.0401818
0.016383
-0.0357757
0.0112912
-0.0310455
0.00695529
-0.0258932
0.00349315
-0.0201685
0.00107907
-0.0136343
-0.00584918
0.255881
-0.0899917
0.242644
-0.0891673
0.229519
-0.0880589
0.21654
-0.086696
0.203738
-0.0851134
0.19114
-0.0833436
0.178771
-0.0814145
0.166651
-0.079349
0.154802
-0.0771663
0.143241
-0.0748817
0.131984
-0.0725073
0.121046
-0.0700522
0.110442
-0.0675229
0.100185
-0.0649233
0.0902891
-0.0622553
0.0807677
-0.0595183
0.0716352
-0.0567099
0.0629066
-0.0538255
0.0545984
-0.0508582
0.0467286
-0.0477982
0.0393176
-0.044633
0.0323892
-0.0413455
0.0259711
-0.0379137
0.0200972
-0.0343079
0.0148098
-0.0304883
0.0101632
-0.026399
0.00623012
-0.0219601
0.00311156
-0.0170499
0.000954692
-0.0114774
-0.00489449
0.242341
-0.077134
0.229567
-0.0763933
0.216912
-0.0754037
0.204411
-0.0741945
0.192094
-0.0727972
0.179991
-0.0712405
0.168126
-0.0695489
0.156519
-0.0677424
0.145191
-0.0658376
0.134157
-0.0638477
0.123432
-0.0617831
0.113032
-0.0596516
0.102967
-0.0574588
0.0932521
-0.055208
0.0838976
-0.0529008
0.0749162
-0.0505369
0.0663205
-0.0481142
0.0581237
-0.0456287
0.0503403
-0.0430748
0.0429865
-0.0404444
0.0360804
-0.0377269
0.0296431
-0.0349082
0.0236995
-0.0319701
0.0182797
-0.0288882
0.0134214
-0.0256299
0.00917219
-0.0221498
0.00559554
-0.0183834
0.00277852
-0.0142329
0.000846031
-0.00954494
-0.00404846
0.229554
-0.0647275
0.217239
-0.0640782
0.205051
-0.0632165
0.193027
-0.0621701
0.181197
-0.0609669
0.169588
-0.0596314
0.158223
-0.0581843
0.147123
-0.0566427
0.136306
-0.0550204
0.125787
-0.0533285
0.11558
-0.0515758
0.105697
-0.0497686
0.0961497
-0.0479117
0.0869495
-0.0460078
0.078107
-0.0440583
0.0696329
-0.0420627
0.0615383
-0.0400196
0.0538351
-0.0379255
0.0465361
-0.0357759
0.0396557
-0.033564
0.0332101
-0.0312813
0.0272181
-0.0289162
0.0217021
-0.026454
0.0166889
-0.023875
0.0122118
-0.0211528
0.00831316
-0.0182512
0.00504827
-0.0151185
0.00249262
-0.0116773
0.000753101
-0.00780542
-0.00329536
0.217522
-0.0527746
0.205668
-0.0522249
0.193952
-0.0514998
0.182406
-0.0506243
0.171061
-0.0496219
0.159943
-0.0485131
0.149073
-0.0473146
0.138471
-0.0460406
0.128153
-0.0447021
0.118132
-0.0433083
0.108423
-0.0418661
0.0990348
-0.0403808
0.0899791
-0.038856
0.0812654
-0.0372941
0.0729032
-0.0356961
0.0649021
-0.0340617
0.057272
-0.0323895
0.0500236
-0.0306771
0.0431682
-0.0289205
0.0367188
-0.0271145
0.0306898
-0.0252523
0.0250982
-0.0233247
0.0199641
-0.0213199
0.0153115
-0.0192224
0.0111701
-0.0170114
0.00757748
-0.0146585
0.00458238
-0.0121234
0.00225073
-0.00934563
0.000675057
-0.00622975
-0.0026203
0.206237
-0.0412815
0.19485
-0.0408382
0.183607
-0.0402563
0.17254
-0.0395572
0.161677
-0.0387597
0.151044
-0.0378799
0.140661
-0.036931
0.130544
-0.0359239
0.120709
-0.0348673
0.111169
-0.0337684
0.101936
-0.0326324
0.0930183
-0.0314635
0.0844267
-0.0302644
0.0761696
-0.029037
0.0682555
-0.027782
0.0606931
-0.0264993
0.0534912
-0.0251876
0.0466594
-0.0238452
0.0402079
-0.022469
0.0341484
-0.0210551
0.0284941
-0.0195979
0.0232602
-0.0180908
0.0184648
-0.0165245
0.0141296
-0.0148872
0.0102814
-0.0131633
0.00695382
-0.0113309
0.00419014
-0.00935974
0.00204865
-0.00720414
0.000610534
-0.00479163
-0.00200977
0.195675
-0.0302547
0.184759
-0.0299221
0.17399
-0.0294874
0.1634
-0.0289671
0.153016
-0.0283752
0.142859
-0.0277235
0.13295
-0.0270219
0.123304
-0.0262781
0.113936
-0.0254987
0.104856
-0.0246886
0.0960755
-0.0238519
0.0876035
-0.0229915
0.0794484
-0.0221094
0.0716183
-0.0212068
0.0641207
-0.0202845
0.0569636
-0.0193421
0.0501549
-0.018379
0.0437034
-0.0173937
0.0376183
-0.016384
0.0319104
-0.0153471
0.0265915
-0.0142791
0.0216757
-0.0131749
0.0171794
-0.0120282
0.0131223
-0.0108302
0.00952889
-0.00956982
0.00642939
-0.00823141
0.0038629
-0.00679325
0.00188159
-0.00522283
0.00055791
-0.00346795
-0.00145186
0.185801
-0.0196986
0.175357
-0.0194786
0.165061
-0.0191917
0.154944
-0.0188494
0.145029
-0.0184607
0.135339
-0.0180334
0.125891
-0.0175738
0.1167
-0.0170871
0.107779
-0.0165774
0.0991382
-0.016048
0.0907877
-0.0155014
0.0827359
-0.0149396
0.0749903
-0.0143638
0.0675584
-0.0137749
0.0604472
-0.0131733
0.0536639
-0.0125588
0.0472158
-0.0119309
0.0411109
-0.0112888
0.0353579
-0.010631
0.0299663
-0.00995559
0.0249475
-0.00926018
0.020314
-0.0085415
0.0160813
-0.00779538
0.0122673
-0.00701632
0.00889458
-0.00619706
0.0059908
-0.00532763
0.00359168
-0.00439413
0.00174462
-0.00337577
0.000515485
-0.00223881
-0.000936372
0.176566
-0.00961463
0.166594
-0.00950617
0.156767
-0.00936511
0.147115
-0.00919703
0.137661
-0.00900643
0.128424
-0.00879707