/*--------------------------------*- C++ -*----------------------------------*\
  =========                 |
  \\      /  F ield         | OpenFOAM: The Open Source CFD Toolbox
   \\    /   O peration     | Website:  https://openfoam.org
    \\  /    A nd           | Version:  12
     \\/     M anipulation  |
\*---------------------------------------------------------------------------*/
FoamFile
{
    format      ascii;
    class       volScalarField;
    location    "360";
    object      pMean;
}
// * * * * * * * * * * * * * * * * * * * * * * * * * * * * * * * * * * * * * //

dimensions      [0 2 -2 0 0 0 0];

internalField   nonuniform List<scalar> 
6750
(
0.0120427
0.012017
0.0119759
0.0118023
0.0108148
0.0136842
0.0136541
0.0135348
0.0132773
0.0129324
0.015583
0.0155309
0.0154086
0.0152184
0.0150752
0.0175575
0.0174706
0.0173545
0.0172215
0.0171532
0.0195097
0.0193791
0.0192535
0.0191487
0.0191187
0.0213602
0.0211813
0.0210355
0.0209416
0.0209299
0.0230603
0.0228318
0.0226621
0.0225723
0.0225704
0.0245805
0.0243033
0.0241096
0.024022
0.0240268
0.0259024
0.0255789
0.0253633
0.0252778
0.0252876
0.0270158
0.0266499
0.0264156
0.0263326
0.0263464
0.0279176
0.0275148
0.0272655
0.0271855
0.0272022
0.0286116
0.0281781
0.027918
0.0278412
0.02786
0.0291076
0.0286496
0.0283837
0.0283099
0.0283296
0.0294206
0.0289437
0.0286782
0.028606
0.0286255
0.0295642
0.0290816
0.0288215
0.0287471
0.0287647
0.0295643
0.0290818
0.0288216
0.0287472
0.0287648
0.0294209
0.028944
0.0286785
0.0286063
0.0286258
0.0291081
0.0286501
0.0283842
0.0283104
0.0283302
0.0286123
0.0281788
0.0279188
0.027842
0.0278608
0.0279185
0.0275158
0.0272664
0.0271865
0.0272032
0.0270169
0.0266511
0.0264168
0.0263338
0.0263476
0.0259037
0.0255802
0.0253647
0.0252792
0.025289
0.024582
0.0243048
0.0241112
0.0240236
0.0240283
0.0230619
0.0228335
0.0226638
0.022574
0.0225722
0.021362
0.0211831
0.0210373
0.0209434
0.0209318
0.0195116
0.019381
0.0192554
0.0191506
0.0191206
0.0175594
0.0174726
0.0173566
0.0172235
0.0171553
0.015585
0.015533
0.0154107
0.0152204
0.0150772
0.0136862
0.0136561
0.0135369
0.0132794
0.0129344
0.0120448
0.0120191
0.011978
0.0118044
0.0108169
0.00491094
0.00545927
0.00684336
0.00785892
0.00859011
0.00917028
0.00962672
0.00997362
0.0102381
0.0104278
0.010521
0.0105808
0.0105837
0.0105271
0.0104092
0.0102254
0.00997124
0.00964715
0.00925354
0.00878886
0.00824961
0.00772672
0.00716799
0.00658787
0.00600441
0.00542886
0.00486994
0.00434418
0.00386175
0.00332249
0.00869269
0.00943292
0.010183
0.0105506
0.0107564
0.0108828
0.010933
0.0109181
0.0108643
0.0107647
0.0106003
0.0104642
0.0103238
0.0101826
0.0100389
0.00988347
0.00970316
0.00948563
0.00921893
0.00889819
0.00853598
0.00806861
0.00757365
0.00704
0.00647477
0.00588834
0.00528805
0.00468996
0.00413919
0.00359512
0.0111459
0.0113132
0.0116098
0.0117488
0.0118148
0.0118197
0.0117528
0.0116259
0.0114562
0.0112101
0.0109073
0.0106199
0.0103156
0.0100057
0.00969589
0.0093862
0.0090731
0.00875089
0.00841308
0.00805387
0.00767045
0.0072632
0.0068336
0.00638114
0.00590953
0.00542355
0.00492333
0.00441934
0.00399499
0.00369946
0.0126158
0.0124035
0.0125286
0.0126044
0.0126108
0.0125467
0.012408
0.0122101
0.0119584
0.0115947
0.0111912
0.0107751
0.010326
0.00986065
0.00939076
0.0089245
0.00846755
0.00802274
0.00759059
0.0071692
0.00675606
0.00635409
0.00595767
0.00556305
0.00516894
0.00477445
0.00437217
0.00396429
0.00366844
0.00366568
0.0137522
0.0134056
0.0134559
0.0134671
0.0133965
0.0132506
0.0130301
0.0127483
0.0123994
0.0119235
0.0114186
0.010878
0.0102974
0.00969634
0.0090907
0.00849428
0.00791874
0.00737261
0.00686097
0.00638526
0.00594428
0.00553625
0.00515653
0.0047992
0.00445929
0.00413187
0.00380344
0.00346774
0.00326995
0.00353775
0.0147557
0.0143762
0.0143671
0.0143038
0.0141525
0.0139244
0.0136207
0.0132505
0.0127947
0.0122141
0.0116042
0.0109433
0.0102394
0.00951409
0.00878669
0.00807522
0.0073956
0.00676019
0.00617712
0.00564999
0.00517842
0.00475906
0.00438641
0.00405308
0.00375182
0.00347503
0.00320428
0.00292672
0.00281002
0.00332176
0.015659
0.0152876
0.0152242
0.0150889
0.0148626
0.0145566
0.0141728
0.0137158
0.013149
0.0124724
0.0117573
0.0109815
0.0101608
0.00931906
0.00847838
0.0076603
0.00688409
0.00616506
0.00551363
0.00493497
0.00442937
0.0039932
0.00361986
0.00330072
0.00302699
0.002789
0.00256419
0.00233512
0.0022897
0.00301785
0.0164814
0.016144
0.0160328
0.0158294
0.0155318
0.0151501
0.0146887
0.0141452
0.0134676
0.0127024
0.0118824
0.0109959
0.0100641
0.0091122
0.00816493
0.00724673
0.00637956
0.00558108
0.00486353
0.0042333
0.00369126
0.00323366
0.00285318
0.00254023
0.00228485
0.00207562
0.00188661
0.00169716
0.00171449
0.00262943
0.0172435
0.0169582
0.0168042
0.0165347
0.0161672
0.0157116
0.0151733
0.0145388
0.0137584
0.0129058
0.0119818
0.0109886
0.00995022
0.0088932
0.00784471
0.00683156
0.00587795
0.0050034
0.00422161
0.00353992
0.00295966
0.00247701
0.00208417
0.0017708
0.00152607
0.0013371
0.00117496
0.00101741
0.00108999
0.00216172
0.0179614
0.0177397
0.0175462
0.0172114
0.0167748
0.0162476
0.0156313
0.0148992
0.0140272
0.013084
0.0120581
0.0109614
0.00981989
0.00866165
0.00751593
0.00641166
0.00537486
0.00442663
0.00358181
0.00284854
0.00222848
0.00171778
0.00130826
0.000989027
0.000748496
0.000572668
0.000429659
0.00029727
0.000418988
0.0016198
0.0186465
0.0184962
0.0182658
0.0178655
0.0173594
0.0167615
0.0160663
0.0152331
0.014277
0.0132404
0.012114
0.010916
0.00967382
0.00841699
0.00717677
0.00598389
0.00486598
0.00384545
0.00293812
0.00215273
0.00149125
0.000949781
0.000519865
0.000190149
-5.15276e-05
-0.000220301
-0.000350672
-0.000463593
-0.000297774
0.00100767
0.0193085
0.0192348
0.0189697
0.0185029
0.0179268
0.0172587
0.0164806
0.015548
0.0145104
0.0133783
0.012152
0.0108539
0.00951237
0.00815847
0.00682529
0.00554517
0.00434714
0.00325475
0.00228466
0.00144615
0.00074144
0.000166591
-0.000287104
-0.00063137
-0.000878851
-0.00104582
-0.00116905
-0.00126742
-0.00106177
0.000327782
0.0199565
0.0199628
0.0196649
0.0191312
0.0184852
0.0177429
0.0168748
0.0158524
0.0147294
0.0135001
0.0121742
0.0107763
0.00933565
0.00788514
0.00645941
0.00509229
0.00381409
0.00264938
0.00161556
0.000722405
-2.76778e-05
-0.000638631
-0.00111938
-0.00148196
-0.00173945
-0.00190922
-0.00203027
-0.00211842
-0.00187648
-0.000419345
0.0205996
0.0206871
0.0203584
0.0197568
0.0190399
0.0182209
0.0172567
0.0161507
0.0149367
0.0136088
0.0121826
0.0106839
0.00914353
0.00759575
0.00607679
0.00462185
0.00326242
0.002024
0.00092471
-2.52547e-05
-0.000823276
-0.00147331
-0.00198447
-0.00236908
-0.00264054
-0.00281744
-0.00294083
-0.00302262
-0.00274737
-0.0012354
0.021245
0.0214175
0.021059
0.0203881
0.0195983
0.0186969
0.0176351
0.016446
0.0151363
0.0137074
0.0121789
0.0105776
0.00893562
0.00728878
0.00567477
0.0041301
0.00268733
0.00137289
0.000205548
-0.000804077
-0.00165316
-0.00234565
-0.00289082
-0.00330122
-0.00359063
-0.00377886
-0.00390888
-0.00398795
-0.00368203
-0.00212459
0.0219001
0.0221654
0.0217791
0.0210372
0.0201674
0.0191732
0.0180206
0.016742
0.0153317
0.0137987
0.0121648
0.0104578
0.0087112
0.00696233
0.00525028
0.00361279
0.00208352
0.000689734
-0.000549148
-0.00162207
-0.002526
-0.00326487
-0.00384807
-0.0042883
-0.00459982
-0.00480365
-0.00494459
-0.00502452
-0.00469032
-0.00309389
0.0225751
0.0229436
0.0225303
0.0217135
0.0207565
0.0196603
0.0184197
0.0170431
0.015527
0.0138856
0.0121419
0.0103248
0.00846916
0.00661397
0.00479961
0.00306501
0.00144488
-3.26628e-05
-0.00134756
-0.00248833
-0.00345169
-0.00424153
-0.00486735
-0.005342
-0.00568006
-0.00590404
-0.00606043
-0.00614491
-0.00578474
-0.00415346
0.0232871
0.0237657
0.023327
0.0224252
0.0213705
0.020173
0.0188384
0.017355
0.015727
0.0139712
0.0121115
0.0101783
0.00820788
0.00624062
0.00431823
0.00248086
0.000764237
-0.000802689
-0.00219921
-0.00341338
-0.00444169
-0.00528796
-0.00596173
-0.00647602
-0.00684571
-0.00709487
-0.00727165
-0.00736478
-0.00698097
-0.0053172
0.0240586
0.0246433
0.0241811
0.0231875
0.022021
0.0207232
0.0192825
0.0176839
0.0159363
0.0140583
0.0120749
0.0100178
0.00792503
0.00583822
0.00380048
0.00185312
3.28994e-05
-0.0016304
-0.00311543
-0.00440979
-0.00550969
-0.00641885
-0.00714688
-0.0077069
-0.00811415
-0.00839426
-0.00859694
-0.00870334
-0.00829841
-0.00660341
0.0249091
0.025598
0.0251117
0.0240142
0.0227265
0.021321
0.0197621
0.018038
0.0161607
0.0141502
0.0120329
0.00984218
0.00761726
0.00540143
0.00323908
0.00117273
-0.000759896
-0.00252817
-0.0041101
-0.00549284
-0.00667229
-0.00765209
-0.00844186
-0.00905478
-0.00950647
-0.00982427
-0.0100593
-0.0101845
-0.00976173
-0.00803611
0.0258665
0.0266617
0.0261411
0.0249212
0.0235103
0.0219811
0.0202895
0.0184266
0.0164064
0.0142503
0.0119862
0.00964905
0.00727973
0.00492297
0.00262449
0.000427972
-0.00162787
-0.00351162
-0.00520064
-0.00668163
-0.00795023
-0.00900994
-0.00987038
-0.0105448
-0.0110492
-0.0114128
-0.0116883
-0.0118388
-0.0114021
-0.00964656
0.0269722
0.0278605
0.0272933
0.0259435
0.0243954
0.0227218
0.0208796
0.0188608
0.0166805
0.0143618
0.0119343
0.00943465
0.00690541
0.00439279
0.00194384
-0.000396628
-0.00258896
-0.00460097
-0.00640944
-0.00800064
-0.00936995
-0.0105208
-0.0114627
-0.0122089
-0.0127761
-0.0131952
-0.0135203
-0.0137046
-0.0132596
-0.0114758
0.0282759
0.029242
0.028612
0.0271208
0.0254093
0.0235667
0.021551
0.0193536
0.0169907
0.0144875
0.0118753
0.0091927
0.0064839
0.00379667
0.00117937
-0.00132212
-0.00366725
-0.00582318
-0.00776616
-0.00948211
-0.0109662
-0.0122217
-0.0132581
-0.0140889
-0.0147312
-0.0152176
-0.015604
-0.0158328
-0.0153873
-0.0135788
0.0298497
0.0308717
0.0301611
0.0284986
0.0265896
0.0245466
0.022327
0.019921
0.017346
0.0146294
0.0118049
0.00891294
0.00599951
0.00311393
0.000305824
-0.00237793
-0.00489608
-0.00721522
-0.00931124
-0.0111698
-0.0127858
-0.0141626
-0.0153098
-0.0162407
-0.016973
-0.0175417
-0.0180038
-0.0182907
-0.0178564
-0.0160303
0.0318105
0.0328478
0.0320182
0.0301386
0.0279887
0.0257032
0.0232383
0.0205827
0.017756
0.0147878
0.0117145
0.00857853
0.00542796
0.00231358
-0.000713843
-0.00360667
-0.00632315
-0.00882959
-0.0111017
-0.013125
-0.0148944
-0.0164133
-0.0176912
-0.0187416
-0.0195831
-0.0202527
-0.0208084
-0.0211708
-0.0207645
-0.018935
0.0343
0.0353051
0.0342934
0.0321341
0.0296824
0.0270948
0.0243262
0.0213644
0.018231
0.014959
0.0115874
0.00816127
0.0047306
0.00134762
-0.00193603
-0.00507232
-0.00801945
-0.0107438
-0.0132213
-0.0154375
-0.0173875
-0.0190747
-0.0205088
-0.0217033
-0.0226775
-0.0234711
-0.0241433
-0.0246039
-0.0242512
-0.0224442
0.0375878
0.0384518
0.0371574
0.0346264
0.0317844
0.0288075
0.0256496
0.022299
0.0187802
0.0151302
0.0113915
0.00761193
0.00384321
0.000138684
-0.00344977
-0.0068745
-0.0100945
-0.0130769
-0.0157984
-0.0182451
-0.0204124
-0.0223034
-0.0239281
-0.0252999
-0.0264386
-0.0273858
-0.0282021
-0.0287899
-0.0285296
-0.0267928
0.0420995
0.0426087
0.0408513
0.0378071
0.0344446
0.03095
0.0272783
0.0234199
0.019404
0.0152721
0.0110709
0.00685121
0.00266661
-0.00142933
-0.00538561
-0.00915633
-0.0127026
-0.0159939
-0.0190086
-0.021734
-0.0241663
-0.0263091
-0.0281716
-0.0297675
-0.0311167
-0.0322614
-0.0332619
-0.0340202
-0.0339236
-0.0323571
0.0487286
0.0485011
0.045988
0.0422243
0.0381357
0.033898
0.0294779
0.0248799
0.0201447
0.015324
0.0104716
0.00564299
0.000893047
-0.00372577
-0.00816568
-0.0123851
-0.01635
-0.0200342
-0.0234186
-0.0264916
-0.0292528
-0.0317142
-0.033873
-0.0357418
-0.0373405
-0.038708
-0.0398999
-0.0408344
-0.0409758
-0.0397671
0.0603693
0.0584309
0.0543157
0.0492765
0.0439794
0.0385213
0.032897
0.0271419
0.021315
0.0154777
0.00968871
0.00400256
-0.00153131
-0.00686972
-0.0119764
-0.016822
-0.0213834
-0.0256435
-0.0295914
-0.0332213
-0.0365263
-0.039497
-0.0421519
-0.0444968
-0.0465409
-0.0483092
-0.049848
-0.0511432
-0.0518655
-0.0513945
0.00845363
0.00943874
0.0112007
0.0126121
0.0138067
0.0149249
0.0159983
0.0170354
0.0180456
0.0190386
0.0200228
0.0210066
0.0219988
0.0230088
0.0240462
0.0251226
0.0262522
0.0274526
0.028744
0.03015
0.031701
0.0334387
0.0354145
0.0376987
0.0403873
0.0436235
0.0476021
0.0525639
0.0587246
0.0667736
0.0128051
0.0138237
0.0149853
0.0159628
0.0168435
0.017688
0.0185077
0.0193069
0.0200931
0.0208742
0.0216584
0.0224537
0.0232686
0.0241124
0.024995
0.0259286
0.0269276
0.0280097
0.0291962
0.0305133
0.0319953
0.0336879
0.0356511
0.0379677
0.0407542
0.0441823
0.048499
0.0540563
0.0613409
0.0710972
0.0152023
0.0161126
0.0169981
0.0177942
0.01857
0.0193426
0.0201091
0.0208709
0.0216329
0.0224011
0.0231819
0.0239821
0.0248093
0.0256721
0.0265803
0.0275459
0.0285836
0.0297113
0.0309512
0.0323318
0.03389
0.0356749
0.0377528
0.0402156
0.0431933
0.0468747
0.051539
0.0575943
0.0656928
0.0766751
0.0173036
0.0181046
0.018875
0.0195908
0.0203019
0.0210189
0.0217412
0.0224716
0.0232156
0.0239788
0.024767
0.025587
0.0264461
0.0273528
0.0283172
0.0293516
0.0304709
0.0316939
0.0330439
0.0345509
0.0362541
0.0382059
0.0404765
0.0431637
0.0464051
0.050399
0.0554389
0.0619474
0.0706662
0.0824734
0.0192654
0.0199724
0.0206523
0.0212962
0.0219466
0.0226141
0.0232997
0.0240064
0.0247387
0.0255017
0.0263008
0.0271424
0.0280338
0.0289835
0.0300021
0.0311022
0.0322994
0.0336133
0.0350687
0.0366973
0.0385405
0.0406533
0.0431098
0.0460121
0.0495037
0.0537902
0.0591742
0.0660877
0.0753547
0.0879045
0.021058
0.0216814
0.0222839
0.0228672
0.0234695
0.0241002
0.0247603
0.0254521
0.0261796
0.0269474
0.0277607
0.0286256
0.0295492
0.0305403
0.0316095
0.0327699
0.0340376
0.035433
0.0369819
0.0387174
0.040683
0.0429357
0.0455529
0.0486402
0.0523459
0.0568819
0.0625597
0.0698233
0.0795773
0.0928303
0.0226772
0.0232255
0.0237622
0.0242959
0.0248605
0.0254636
0.0261057
0.0267889
0.0275165
0.0282929
0.0291229
0.0300123
0.0309682
0.0319994
0.0331167
0.0343333
0.0356659
0.0371355
0.0387686
0.0405997
0.0426733
0.0450487
0.0478052
0.0510516
0.05494
0.0596874
0.065614
0.073176
0.0833443
0.0972211
0.0241172
0.024598
0.0250782
0.0255713
0.0261062
0.0266885
0.0273183
0.0279972
0.0287283
0.0295153
0.0303628
0.0312764
0.0322632
0.033332
0.0344935
0.0357614
0.0371525
0.0386885
0.0403965
0.0423118
0.0444802
0.0469621
0.0498389
0.0532217
0.0572655
0.0621918
0.0683277
0.0761411
0.0866493
0.101051
0.0253693
0.0257894
0.0262217
0.026682
0.0271938
0.0277607
0.0283823
0.02906
0.0297963
0.0305946
0.0314591
0.0323954
0.0334104
0.0345128
0.0357136
0.0370265
0.0384687
0.0400622
0.0418348
0.0438224
0.0460716
0.048644
0.0516224
0.0551195
0.059293
0.0643677
0.0706769
0.0786978
0.0894771
0.104306
0.0264262
0.0267932
0.0271857
0.0276201
0.0281143
0.02867
0.0292866
0.0299648
0.030707
0.0315161
0.0323961
0.0333525
0.034392
0.0355234
0.0367577
0.0381088
0.0395942
0.0412359
0.0430624
0.04511
0.047426
0.0500729
0.0531344
0.0567249
0.0610038
0.0661984
0.0726472
0.0808352
0.0918218
0.106993
0.0272853
0.0276072
0.0279678
0.0283825
0.0288636
0.0294114
0.0300249
0.0307047
0.0314526
0.0322712
0.0331646
0.0341379
0.0351978
0.0363531
0.0376149
0.0389971
0.0405173
0.042198
0.0440678
0.0461634
0.0485326
0.0512387
0.0543661
0.0580302
0.0623918
0.0676803
0.0742381
0.082556
0.0936936
0.109138
0.027949
0.0282346
0.028571
0.0289712
0.0294429
0.0299853
0.0305971
0.0312787
0.0320315
0.0328581
0.0337622
0.0347488
0.0358248
0.0369987
0.0382818
0.039688
0.0412351
0.0429457
0.0448486
0.0469809
0.0493907
0.0521417
0.0553189
0.0590386
0.0634625
0.0688212
0.0754605
0.0838752
0.0951169
0.110772
0.028425
0.0286837
0.0290028
0.0293931
0.0298585
0.0303974
0.0310084
0.0316915
0.0324482
0.0332807
0.0341927
0.0351892
0.0362768
0.0374643
0.0387627
0.0401862
0.0417526
0.0434845
0.0454111
0.0475695
0.0500081
0.052791
0.0560035
0.0597624
0.0642302
0.0696383
0.0763348
0.0848167
0.0961245
0.111936
0.0287258
0.0289668
0.0292752
0.0296594
0.0301211
0.0306579
0.0312685
0.0319529
0.0327121
0.0335486
0.0344657
0.0354685
0.0365636
0.0377597
0.039068
0.0405025
0.0420811
0.0438267
0.0457683
0.0479432
0.0504001
0.0532031
0.056438
0.0602216
0.064717
0.0701559
0.0768886
0.0854118
0.0967531
0.112678
0.0288671
0.0290996
0.0294028
0.0297843
0.0302442
0.0307802
0.0313907
0.0320757
0.0328363
0.0336747
0.0345943
0.0356002
0.0366989
0.0378992
0.0392122
0.040652
0.0422365
0.0439886
0.0459373
0.0481202
0.0505858
0.0533985
0.056644
0.0604393
0.0649479
0.0704016
0.0771514
0.0856938
0.0970445
0.113037
0.0288672
0.0290998
0.0294029
0.0297844
0.0302444
0.0307803
0.0313908
0.0320758
0.0328364
0.0336748
0.0345944
0.0356003
0.036699
0.0378993
0.0392122
0.040652
0.0422366
0.0439886
0.0459374
0.0481202
0.0505859
0.0533985
0.056644
0.0604394
0.064948
0.0704016
0.0771514
0.0856938
0.0970445
0.113037
0.0287261
0.0289672
0.0292755
0.0296597
0.0301214
0.0306582
0.0312688
0.0319532
0.0327124
0.0335489
0.034466
0.0354688
0.0365639
0.03776
0.0390682
0.0405027
0.0420813
0.0438269
0.0457684
0.0479434
0.0504003
0.0532033
0.0564381
0.0602217
0.0647171
0.0701561
0.0768886
0.0854119
0.0967532
0.112678
0.0284256
0.0286843
0.0290034
0.0293936
0.0298591
0.030398
0.0310089
0.0316921
0.0324487
0.0332812
0.0341932
0.0351896
0.0362772
0.0374647
0.0387631
0.0401865
0.0417529
0.0434849
0.0454114
0.0475697
0.0500084
0.0527913
0.0560038
0.0597627
0.0642305
0.0696385
0.076335
0.0848168
0.0961247
0.111936
0.0279498
0.0282354
0.0285718
0.0289719
0.0294437
0.0299861
0.0305979
0.0312794
0.0320322
0.0328588
0.0337628
0.0347494
0.0358254
0.0369993
0.0382823
0.0396885
0.0412356
0.0429462
0.044849
0.0469813
0.0493911
0.0521421
0.0553193
0.059039
0.0634629
0.0688216
0.0754608
0.0838754
0.0951172
0.110772
0.0272863
0.0276082
0.0279688
0.0283834
0.0288646
0.0294124
0.0300258
0.0307056
0.0314534
0.0322721
0.0331654
0.0341386
0.0351985
0.0363538
0.0376156
0.0389977
0.0405179
0.0421986
0.0440683
0.0461639
0.0485331
0.0512392
0.0543666
0.0580307
0.0623923
0.0676808
0.0742386
0.0825564
0.0936941
0.109138
0.0264274
0.0267944
0.0271869
0.0276212
0.0281154
0.0286711
0.0292877
0.0299659
0.030708
0.0315171
0.0323971
0.0333534
0.0343929
0.0355243
0.0367585
0.0381096
0.0395949
0.0412366
0.0430631
0.0451106
0.0474266
0.0500735
0.053135
0.0567254
0.0610043
0.066199
0.0726479
0.0808358
0.0918224
0.106993
0.0253706
0.0257908
0.0262231
0.0266833
0.0271951
0.027762
0.0283836
0.0290613
0.0297975
0.0305957
0.0314602
0.0323964
0.0334114
0.0345137
0.0357145
0.0370273
0.0384696
0.0400631
0.0418356
0.0438231
0.0460723
0.0486447
0.051623
0.0551201
0.0592937
0.0643685
0.0706779
0.0786987
0.0894779
0.104306
0.0241188
0.0245995
0.0250798
0.0255728
0.0261077
0.02669
0.0273197
0.0279986
0.0287296
0.0295166
0.030364
0.0312776
0.0322644
0.0333331
0.0344945
0.0357624
0.0371535
0.0386894
0.0403974
0.0423127
0.044481
0.0469629
0.0498396
0.0532224
0.0572663
0.0621928
0.068329
0.0761422
0.0866501
0.101051
0.0226789
0.0232272
0.0237639
0.0242976
0.0248622
0.0254652
0.0261073
0.0267904
0.027518
0.0282944
0.0291243
0.0300136
0.0309695
0.0320006
0.0331178
0.0343344
0.035667
0.0371365
0.0387697
0.0406007
0.0426743
0.0450495
0.0478059
0.0510523
0.0549409
0.0596887
0.0656155
0.0731774
0.0833451
0.0972214
0.0210599
0.0216832
0.0222857
0.022869
0.0234713
0.024102
0.0247619
0.0254537
0.0261812
0.026949
0.0277622
0.028627
0.0295506
0.0305416
0.0316108
0.0327711
0.0340387
0.0354341
0.036983
0.0387185
0.040684
0.0429367
0.0455537
0.0486411
0.052347
0.0568833
0.0625615
0.0698248
0.0795781
0.0928304
0.0192673
0.0199744
0.0206542
0.0212981
0.0219484
0.0226159
0.0233015
0.0240081
0.0247404
0.0255033
0.0263024
0.027144
0.0280353
0.028985
0.0300035
0.0311035
0.0323007
0.0336146
0.0350699
0.0366985
0.0385416
0.0406543
0.0431108
0.0460132
0.049505
0.0537919
0.0591762
0.0660893
0.0753554
0.0879045
0.0173056
0.0181066
0.018877
0.0195928
0.0203039
0.0210208
0.021743
0.0224735
0.0232174
0.0239805
0.0247688
0.0255887
0.0264477
0.0273543
0.0283187
0.029353
0.0304723
0.0316952
0.0330452
0.0345521
0.0362553
0.038207
0.0404776
0.0431649
0.0464065
0.0504009
0.0554409
0.061949
0.0706668
0.0824733
0.0152043
0.0161147
0.0170002
0.0177963
0.018572
0.0193446
0.0201111
0.0208728
0.0216348
0.022403
0.0231837
0.0239838
0.024811
0.0256737
0.0265819
0.0275474
0.028585
0.0297127
0.0309526
0.0323331
0.0338912
0.0356762
0.0377541
0.040217
0.0431949
0.0468766
0.051541
0.0575956
0.0656932
0.0766748
0.0128071
0.0138258
0.0149874
0.0159649
0.0168455
0.01769
0.0185097
0.0193089
0.020095
0.0208762
0.0216603
0.0224555
0.0232704
0.0241141
0.0249967
0.0259302
0.0269292
0.0280113
0.0291977
0.0305147
0.0319967
0.0336893
0.0356525
0.0379693
0.0407559
0.0441841
0.0485007
0.0540572
0.0613411
0.071097
0.00845572
0.00944092
0.0112029
0.0126142
0.0138088
0.0149269
0.0160003
0.0170373
0.0180475
0.0190405
0.0200246
0.0210084
0.0220005
0.0230105
0.0240479
0.0251242
0.0262538
0.027454
0.0287454
0.0301513
0.0317023
0.03344
0.0354159
0.0377004
0.040389
0.0436251
0.0476032
0.0525643
0.0587245
0.0667734
0.0603694
0.0584311
0.0543157
0.0492764
0.0439792
0.0385212
0.0328969
0.0271417
0.0213146
0.0154771
0.00968788
0.00400148
-0.00153264
-0.0068713
-0.0119782
-0.016824
-0.0213856
-0.0256458
-0.0295938
-0.0332238
-0.0365289
-0.0394996
-0.0421545
-0.0444994
-0.0465435
-0.0483118
-0.0498506
-0.0511458
-0.0518683
-0.0513974
0.0487284
0.0485008
0.0459877
0.0422242
0.0381356
0.0338979
0.0294778
0.0248795
0.0201442
0.0153232
0.0104706
0.00564179
0.000891641
-0.00372737
-0.00816748
-0.0123871
-0.0163521
-0.0200364
-0.023421
-0.0264941
-0.0292554
-0.0317169
-0.0338756
-0.0357445
-0.0373432
-0.0387107
-0.0399025
-0.040837
-0.0409783
-0.0397696
0.0420996
0.0426089
0.0408516
0.0378075
0.0344448
0.0309501
0.0272782
0.0234196
0.0194033
0.0152712
0.0110698
0.00684996
0.00266518
-0.00143092
-0.00538737
-0.00915825
-0.0127047
-0.0159962
-0.019011
-0.0217365
-0.024169
-0.0263119
-0.0281745
-0.0297704
-0.0311197
-0.0322643
-0.0332647
-0.0340229
-0.0339261
-0.0323594
0.0375885
0.0384526
0.0371581
0.0346268
0.0317846
0.0288074
0.0256492
0.0222983
0.0187793
0.0151292
0.0113903
0.00761058
0.00384174
0.000137091
-0.0034515
-0.00687638
-0.0100965
-0.0130791
-0.0158008
-0.0182477
-0.0204152
-0.0223064
-0.0239312
-0.0253031
-0.026442
-0.0273891
-0.0282053
-0.0287928
-0.0285322
-0.026795
0.0343012
0.0353061
0.0342942
0.0321344
0.0296822
0.0270944
0.0243255
0.0213634
0.0182298
0.0149577
0.011586
0.0081598
0.00472907
0.001346
-0.00193775
-0.00507418
-0.00802145
-0.010746
-0.0132237
-0.0154401
-0.0173904
-0.0190778
-0.020512
-0.0217067
-0.022681
-0.0234746
-0.0241468
-0.0246071
-0.0242541
-0.0224467
0.0318118
0.0328488
0.0320187
0.0301386
0.0279884
0.0257025
0.0232373
0.0205815
0.0177546
0.0147863
0.0117129
0.00857695
0.00542635
0.00231192
-0.000715578
-0.00360851
-0.00632513
-0.00883174
-0.011104
-0.0131276
-0.0148972
-0.0164163
-0.0176944
-0.018745
-0.0195866
-0.0202562
-0.0208119
-0.0211742
-0.0207677
-0.0189379
0.0298511
0.0308726
0.0301615
0.0284986
0.0265891
0.0245458
0.0223259
0.0199197
0.0173445
0.0146279
0.0118033
0.00891129
0.00599784
0.00311224
0.000304081
-0.00237976
-0.00489802
-0.00721732
-0.00931351
-0.0111722
-0.0127885
-0.0141655
-0.0153128
-0.0162438
-0.0169764
-0.0175452
-0.0180072
-0.0182941
-0.0178597
-0.0160334
0.0282769
0.0292428
0.0286124
0.0271207
0.0254088
0.0235659
0.0215499
0.0193523
0.0169893
0.0144859
0.0118737
0.00919103
0.00648223
0.00379499
0.00117765
-0.0013239
-0.00366914
-0.00582519
-0.00776832
-0.00948443
-0.0109687
-0.0122243
-0.0132609
-0.0140919
-0.0147343
-0.0152208
-0.0156073
-0.0158362
-0.0153907
-0.0135821
0.0269733
0.0278614
0.0272938
0.0259435
0.0243951
0.0227211
0.0208786
0.0188596
0.0166791
0.0143602
0.0119327
0.00943302
0.00690378
0.00439115
0.00194218
-0.000398342
-0.00259075
-0.00460286
-0.00641145
-0.00800279
-0.00937224
-0.0105232
-0.0114652
-0.0122116
-0.012779
-0.0131982
-0.0135235
-0.0137078
-0.0132629
-0.0114792
0.0258676
0.0266626
0.0261417
0.0249214
0.0235101
0.0219806
0.0202887
0.0184255
0.0164051
0.0142489
0.0119847
0.00964749
0.00727816
0.0049214
0.00262291
0.000426357
-0.00162955
-0.00351337
-0.00520249
-0.00668359
-0.00795232
-0.00901216
-0.00987274
-0.0105473
-0.0110519
-0.0114156
-0.0116912
-0.0118419
-0.0114053
-0.00964992
0.0249103
0.025599
0.0251123
0.0240145
0.0227265
0.0213206
0.0197614
0.018037
0.0161595
0.0141489
0.0120315
0.00984071
0.00761578
0.00539996
0.00323761
0.00117123
-0.00076144
-0.00252978
-0.00411179
-0.00549462
-0.00667419
-0.00765412
-0.00844403
-0.00905711
-0.00950898
-0.00982697
-0.0100622
-0.0101876
-0.00976491
-0.00803939
0.0240598
0.0246444
0.0241819
0.0231879
0.0220211
0.0207229
0.0192819
0.017683
0.0159352
0.014057
0.0120735
0.0100165
0.00792367
0.00583686
0.00379912
0.00185175
3.14875e-05
-0.00163187
-0.00311696
-0.00441141
-0.00551142
-0.00642071
-0.0071489
-0.00770909
-0.00811651
-0.00839677
-0.00859968
-0.00870628
-0.00830151
-0.00660661
0.0232884
0.0237668
0.0233279
0.0224257
0.0213707
0.0201729
0.0188379
0.0173543
0.015726
0.01397
0.0121103
0.0101771
0.00820664
0.00623938
0.00431699
0.0024796
0.000762941
-0.000804033
-0.00220061
-0.00341487
-0.00444329
-0.00528968
-0.00596361
-0.00647808
-0.00684797
-0.00709734
-0.00727434
-0.00736765
-0.00698401
-0.00532031
0.0225765
0.0229448
0.0225313
0.021714
0.0207567
0.0196602
0.0184193
0.0170424
0.0155262
0.0138846
0.0121408
0.0103237
0.00846805
0.00661286
0.00479848
0.00306386
0.00144369
-3.39029e-05
-0.00134886
-0.00248971
-0.00345317
-0.00424315
-0.00486914
-0.00534399
-0.00568226
-0.00590646
-0.00606305
-0.00614771
-0.00578768
-0.00415647
0.0219016
0.0221668
0.0217801
0.0210379
0.0201677
0.0191732
0.0180203
0.0167415
0.015331
0.0137979
0.0121639
0.0104569
0.00871022
0.00696134
0.00524926
0.00361174
0.00208242
0.000688578
-0.000550372
-0.00162338
-0.00252742
-0.00326643
-0.0038498
-0.00429023
-0.00460196
-0.004806
-0.00494715
-0.00502725
-0.00469319
-0.00309681
0.0212466
0.021419
0.0210602
0.0203889
0.0195988
0.018697
0.017635
0.0164457
0.0151357
0.0137067
0.0121781
0.0105768
0.00893478
0.0072879
0.00567385
0.00412913
0.0026863
0.0013718
0.000204379
-0.000805337
-0.00165453
-0.00234717
-0.00289252
-0.0033031
-0.00359274
-0.00378118
-0.0039114
-0.00399064
-0.00368484
-0.00212743
0.0206013
0.0206886
0.0203596
0.0197577
0.0190405
0.0182212
0.0172567
0.0161505
0.0149364
0.0136084
0.012182
0.0106833
0.00914283
0.00759498
0.00607595
0.00462095
0.00326145
0.00202295
0.000923575
-2.64923e-05
-0.000824637
-0.00147482
-0.00198616
-0.00237096
-0.00264263
-0.00281974
-0.00294332
-0.00302528
-0.00275013
-0.00123817
0.0199582
0.0199644
0.0196662
0.0191323
0.018486
0.0177434
0.0168751
0.0158525
0.0147292
0.0134999
0.0121738
0.0107758
0.00933507
0.00788447
0.00645866
0.00509146
0.00381317
0.00264836
0.00161444
0.00072117
-2.90457e-05
-0.000640153
-0.00112108
-0.00148385
-0.00174154
-0.00191152
-0.00203276
-0.00212106
-0.00187921
-0.000422058
0.0193103
0.0192364
0.0189711
0.0185041
0.0179277
0.0172594
0.0164811
0.0155483
0.0145104
0.0133782
0.0121518
0.0108536
0.00951192
0.00815792
0.00682462
0.00554439
0.00434625
0.00325374
0.00228354
0.00144491
0.000740048
0.000165039
-0.000288831
-0.000633286
-0.000880957
-0.00104812
-0.00117153
-0.00127004
-0.00106447
0.000325104
0.0186483
0.0184979
0.0182674
0.0178668
0.0173605
0.0167624
0.016067
0.0152335
0.0142773
0.0132405
0.0121139
0.0109158
0.00967349
0.00841653
0.00717617
0.00598316
0.00486513
0.00384446
0.00293698
0.00215145
0.00148982
0.000948189
0.000518099
0.000188201
-5.36531e-05
-0.000222603
-0.000353135
-0.000466196
-0.000300452
0.00100502
0.0179633
0.0177416
0.0175478
0.0172128
0.0167761
0.0162487
0.0156322
0.0148998
0.0140276
0.0130843
0.0120582
0.0109613
0.00981969
0.00866129
0.00751541
0.00641098
0.00537402
0.00442563
0.00358066
0.00284723
0.00222701
0.00171614
0.00130644
0.000987027
0.000746343
0.00057037
0.000427214
0.000294679
0.000416326
0.00161716
0.0172455
0.0169601
0.0168059
0.0165362
0.0161686
0.0157128
0.0151743
0.0145396
0.013759
0.0129063
0.0119821
0.0109887
0.00995013
0.00889293
0.00784426
0.00683093
0.00587713
0.0050024
0.00422043
0.00353857
0.00295814
0.00247532
0.00208231
0.00176877
0.00152388
0.00133476
0.00117249
0.00101482
0.00108734
0.00215909
0.0164833
0.0161459
0.0160345
0.015831
0.0155333
0.0151514
0.0146898
0.0141462
0.0134684
0.012703
0.0118828
0.0109961
0.0100642
0.00911202
0.00816454
0.00724613
0.00637875
0.00558006
0.00486232
0.00423191
0.00368969
0.00323191
0.00285128
0.00253817
0.00228263
0.00207326
0.00188411
0.00169458
0.00171187
0.00262681
0.015661
0.0152896
0.0152261
0.0150907
0.0148642
0.0145581
0.0141741
0.013717
0.0131499
0.0124732
0.0117579
0.0109818
0.010161
0.00931897
0.00847805
0.00765973
0.00688329
0.00616403
0.00551238
0.00493352
0.00442774
0.0039914
0.00361791
0.00329862
0.00302474
0.00278664
0.00256175
0.00233263
0.00228712
0.00301525
0.0147577
0.0143782
0.0143691
0.0143057
0.0141543
0.013926
0.0136221
0.0132518
0.0127958
0.012215
0.0116049
0.0109438
0.0102396
0.00951409
0.00878643
0.00807469
0.0073948
0.00675915
0.00617584
0.0056485
0.00517673
0.0047572
0.00438441
0.00405094
0.00374956
0.00347267
0.00320185
0.0029242
0.00280745
0.0033192
0.0137543
0.0134076
0.0134579
0.013469
0.0133983
0.0132523
0.0130317
0.0127497
0.0124006
0.0119245
0.0114195
0.0108786
0.0102977
0.00969641
0.00909048
0.00849377
0.00791795
0.00737155
0.00685966
0.00638372
0.00594255
0.00553435
0.00515449
0.00479704
0.00445702
0.00412952
0.00380104
0.00346526
0.0032675
0.00353525
0.0126179
0.0124056
0.0125307
0.0126063
0.0126127
0.0125485
0.0124097
0.0122117
0.0119598
0.0115959
0.0111922
0.0107758
0.0103265
0.00986079
0.00939059
0.00892402
0.00846676
0.00802167
0.00758926
0.00716763
0.00675431
0.00635217
0.00595561
0.00556087
0.00516667
0.0047721
0.00436976
0.00396189
0.00366603
0.00366326
0.011148
0.0113153
0.0116119
0.0117509
0.0118168
0.0118216
0.0117546
0.0116275
0.0114577
0.0112114
0.0109083
0.0106207
0.0103161
0.0100058
0.00969576
0.00938575
0.00907233
0.00874981
0.00841173
0.00805228
0.00766866
0.00726125
0.00683152
0.00637896
0.00590727
0.00542122
0.00492097
0.00441696
0.00399261
0.00369714
0.0086949
0.00943508
0.0101851
0.0105528
0.0107585
0.0108848
0.0109348
0.0109199
0.0108659
0.0107662
0.0106015
0.0104652
0.0103244
0.0101829
0.0100388
0.00988303
0.00970236
0.0094845
0.0092175
0.0088965
0.00853405
0.00806659
0.00757154
0.00703782
0.00647252
0.00588604
0.00528577
0.0046877
0.00413695