/*--------------------------------*- C++ -*----------------------------------*\
  =========                 |
  \\      /  F ield         | OpenFOAM: The Open Source CFD Toolbox
   \\    /   O peration     | Website:  https://openfoam.org
    \\  /    A nd           | Version:  12
     \\/     M anipulation  |
\*---------------------------------------------------------------------------*/
FoamFile
{
    format      ascii;
    class       volScalarField;
    location    "360";
    object      pPrime2Mean;
}
// * * * * * * * * * * * * * * * * * * * * * * * * * * * * * * * * * * * * * //

dimensions      [0 4 -4 0 0 0 0];

internalField   nonuniform List<scalar> 
6750
(
0.00366345
0.00365815
0.00365147
0.00364555
0.00363874
0.00366428
0.00365684
0.00364517
0.00363135
0.00361681
0.00368096
0.00367175
0.00365664
0.00363732
0.00361655
0.00371277
0.00370295
0.0036867
0.00366556
0.0036429
0.00375771
0.00374872
0.00373377
0.00371411
0.00369306
0.00381258
0.00380565
0.00379405
0.00377846
0.0037617
0.00387332
0.00386941
0.00386266
0.00385306
0.00384262
0.00393565
0.00393535
0.00393445
0.00393211
0.00392942
0.00399556
0.00399915
0.00400453
0.00401003
0.00401583
0.0040497
0.00405711
0.00406869
0.00408198
0.0040963
0.00409552
0.00410641
0.00412365
0.00414411
0.00416634
0.00413139
0.00414521
0.00416719
0.00419372
0.00422269
0.00415652
0.00417256
0.00419814
0.00422928
0.00426345
0.0041709
0.00418837
0.00421628
0.00425042
0.004288
0.00417509
0.00419322
0.00422215
0.00425766
0.00429682
0.00417008
0.0041881
0.00421689
0.00425223
0.00429121
0.00415583
0.00417302
0.00420048
0.00423411
0.00427114
0.00413149
0.00414704
0.0041719
0.00420219
0.00423543
0.00409662
0.00410979
0.00413079
0.00415617
0.00418387
0.0040514
0.00406152
0.00407756
0.00409663
0.0041173
0.00399676
0.0040033
0.00401354
0.00402526
0.00403783
0.00393447
0.00393714
0.00394109
0.00394493
0.00394887
0.00386719
0.00386595
0.0038636
0.00385957
0.00385501
0.00379836
0.00379352
0.00378535
0.00377411
0.00376184
0.00373205
0.00372423
0.00371126
0.0036941
0.0036756
0.00367258
0.00366274
0.00364651
0.00362537
0.0036027
0.00362405
0.00361344
0.00359598
0.00357346
0.00354932
0.00358966
0.0035797
0.00356347
0.00354285
0.00352072
0.00357141
0.0035633
0.00355061
0.00353556
0.00351977
0.00356997
0.00356412
0.00355659
0.00354972
0.00354207
0.00361411
0.00358696
0.00353505
0.00346122
0.00336679
0.00325278
0.00311957
0.00296749
0.00279803
0.00261347
0.00241581
0.00221003
0.00200052
0.00179237
0.00159072
0.00140016
0.00122437
0.00106588
0.000925909
0.000804316
0.000699946
0.000612668
0.000539599
0.000478821
0.000428589
0.000387232
0.000353358
0.000325662
0.000303215
0.000288799
0.00361905
0.00357392
0.00350713
0.00342088
0.00331602
0.00319322
0.00305329
0.00289748
0.00272781
0.00254657
0.00235537
0.00215933
0.00196179
0.00176687
0.00157858
0.00140048
0.0012354
0.00108531
0.000951294
0.000833663
0.000732197
0.000644652
0.00057078
0.000508731
0.000456911
0.000413956
0.000378581
0.000349455
0.000325128
0.000306184
0.00360682
0.00354698
0.00346846
0.00337339
0.0032616
0.0031337
0.0029906
0.0028338
0.0026656
0.00248791
0.00230303
0.00211555
0.00192818
0.00174433
0.00156719
0.00139949
0.00124341
0.00110052
0.000971708
0.00085726
0.000756931
0.000670066
0.000595688
0.000532539
0.00047933
0.00043482
0.000397825
0.000367104
0.000341659
0.000322113
0.00358607
0.00351656
0.00342977
0.00332851
0.00321262
0.00308228
0.00293834
0.0027824
0.00261674
0.00244268
0.00226357
0.00208294
0.00190329
0.00172759
0.00155852
0.00139835
0.0012489
0.00111147
0.00098684
0.0008753
0.000776699
0.000690634
0.00061628
0.000552625
0.000498562
0.000452928
0.000414489
0.000382077
0.00035515
0.000336281
0.00356257
0.00348635
0.00339336
0.00328738
0.0031688
0.00303741
0.00289395
0.0027399
0.00257727
0.00240707
0.00223313
0.00205812
0.00188446
0.00171487
0.00155175
0.00139716
0.00125273
0.00111963
0.000998581
0.000889833
0.000793265
0.000708456
0.00063471
0.00057113
0.000516699
0.000470308
0.000430717
0.000396672
0.000368397
0.000350141
0.00354001
0.00345873
0.00336113
0.00325154
0.00313098
0.00299938
0.00285707
0.00270537
0.00254583
0.00237943
0.00220993
0.00203943
0.00187035
0.00170525
0.00154644
0.0013959
0.00125523
0.00112555
0.00100753
0.000901371
0.000806912
0.000723669
0.000650938
0.000587839
0.000533388
0.000486531
0.00044602
0.000410666
0.000381286
0.000363711
0.00352068
0.0034355
0.00333429
0.00322205
0.0031001
0.00296864
0.00282779
0.00267851
0.00252178
0.00235885
0.00219298
0.00202596
0.00186023
0.00169826
0.00154239
0.00139464
0.00125666
0.00112958
0.00101404
0.000910201
0.000817792
0.000736237
0.000664742
0.000602378
0.000548155
0.000501067
0.000459905
0.00042356
0.000393323
0.00037651
0.00350645
0.00341819
0.00331409
0.00319973
0.00307695
0.0029457
0.0028063
0.00265924
0.00250483
0.00234487
0.00218173
0.00201719
0.00185365
0.00169362
0.0015395
0.00139346
0.00125721
0.00113198
0.00101839
0.000916528
0.000826018
0.000746148
0.000675993
0.000614532
0.000560761
0.000513614
0.000472042
0.00043504
0.000404171
0.000388082
0.00349901
0.00340825
0.00330159
0.00318538
0.00306196
0.00293097
0.00279282
0.00264753
0.00249495
0.0023372
0.00217586
0.00201277
0.00185033
0.00169112
0.00153769
0.00139236
0.00125701
0.00113292
0.00102074
0.00092048
0.000831653
0.000753387
0.000684606
0.000624175
0.000571044
0.0005241
0.000482375
0.000444901
0.000413563
0.000398065
0.00350003
0.00340708
0.00329792
0.00317984
0.00305572
0.00292501
0.00278767
0.00264346
0.00249218
0.00233572
0.0021752
0.0020125
0.00185008
0.00169063
0.00153689
0.00139137
0.00125611
0.00113249
0.00102117
0.000922122
0.000834714
0.000757923
0.000690509
0.000631211
0.00057885
0.00053237
0.000490714
0.000452933
0.000421242
0.000406142
0.00351121
0.00341611
0.00330426
0.00318399
0.00305885
0.00292814
0.00279118
0.00264733
0.00249666
0.00234048
0.00217974
0.00201636
0.00185286
0.00169211
0.00153707
0.00139048
0.00125453
0.00113072
0.00101974
0.00092147
0.000835191
0.000759714
0.000693634
0.000635538
0.000584125
0.000538297
0.000496867
0.000458916
0.000426964
0.000412048
0.00353443
0.00343694
0.00332194
0.00319892
0.00307225
0.00294106
0.00280383
0.00265957
0.00250866
0.00235169
0.00218962
0.00202441
0.0018587
0.00169557
0.00153824
0.00138968
0.00125227
0.00112762
0.00101641
0.000918508
0.000833055
0.000758719
0.000693926
0.000637094
0.000586752
0.00054174
0.000500639
0.000462636
0.000430523
0.000415583
0.00357185
0.00347144
0.00335265
0.00322613
0.00309732
0.00296467
0.00282628
0.00268085
0.00252862
0.00236969
0.00220508
0.00203681
0.00186767
0.00170104
0.00154039
0.00138896
0.00124931
0.00112313
0.00101116
0.000913193
0.000828265
0.000754891
0.000691325
0.000635782
0.000586588
0.00054242
0.000501818
0.000463908
0.000431762
0.000416618
0.0036261
0.00352189
0.00339842
0.00326735
0.00313534
0.00300024
0.00285962
0.00271202
0.0025572
0.00239501
0.0022265
0.00205381
0.00187996
0.00170862
0.00154358
0.00138833
0.0012456
0.00111721
0.00100391
0.000905464
0.00082077
0.000748188
0.00068577
0.000631497
0.000583523
0.000540272
0.000500272
0.000462626
0.000430615
0.000415131
0.0037003
0.00359116
0.00346184
0.00332491
0.00318845
0.00304957
0.00290534
0.00275427
0.00259536
0.00242837
0.00225441
0.00207577
0.00189578
0.00171843
0.00154785
0.00138776
0.0012411
0.00110978
0.000994586
0.000895236
0.000810502
0.000738542
0.00067718
0.000624168
0.000577428
0.000535179
0.000495938
0.000458775
0.000427134
0.000411255
0.00379844
0.00368298
0.00354643
0.00340202
0.00325949
0.00311509
0.00296563
0.00280928
0.00264438
0.00247071
0.00228946
0.00210314
0.00191542
0.00173065
0.00155327
0.00138726
0.00123575
0.00110075
0.000983096
0.000882417
0.000797355
0.000725833
0.000665427
0.000613668
0.000568206
0.000527098
0.000488846
0.000452478
0.000421543
0.000405357
0.00392571
0.00380229
0.0036569
0.00350298
0.0033523
0.00320017
0.0030434
0.00287927
0.00270595
0.00252325
0.00233248
0.00213645
0.0019392
0.00174543
0.00155988
0.00138679
0.00122948
0.00109007
0.000969367
0.000866922
0.000781206
0.000709917
0.000650365
0.000599841
0.000555807
0.00051609
0.000479184
0.000444077
0.000414358
0.000398167
0.00408914
0.00395581
0.00379961
0.00363344
0.00347189
0.00330928
0.00314211
0.00296702
0.00278219
0.0025875
0.0023845
0.00217636
0.00196751
0.00176295
0.00156773
0.00138631
0.00122222
0.00107763
0.000953303
0.000848648
0.000761951
0.000690691
0.00063193
0.000582706
0.000540302
0.000502402
0.00046741
0.00043429
0.000406585
0.000391012
0.0042984
0.00415249
0.00398287
0.00380085
0.00362478
0.00344793
0.00326615
0.003076
0.00287571
0.00266532
0.00244679
0.00222367
0.00200075
0.00178336
0.00157681
0.00138579
0.0012139
0.00106335
0.000934792
0.000827484
0.000739514
0.000668147
0.000610215
0.000562498
0.000522113
0.000486666
0.000454508
0.000424527
0.000400059
0.000386175
0.00456681
0.00440457
0.00421786
0.00401499
0.00381939
0.00362288
0.00342109
0.0032105
0.00298965
0.00275896
0.00252081
0.00227921
0.00203932
0.00180679
0.00158714
0.00138516
0.00120446
0.00104716
0.000913767
0.000803385
0.000713922
0.000642456
0.000585599
0.000539907
0.000502317
0.000470356
0.00044245
0.000417452
0.000398104
0.000387611
0.00491301
0.00472914
0.00452005
0.00428925
0.00406673
0.00384316
0.00361395
0.00337588
0.00312792
0.00287102
0.00260816
0.00234387
0.00208366
0.0018334
0.00159871
0.00138437
0.00119383
0.001029
0.000890225
0.000776435
0.000685403
0.00061407
0.000558885
0.000516217
0.000482828
0.000456215
0.000434865
0.000417876
0.000406625
0.000402287
0.00536319
0.00514956
0.00491066
0.00464167
0.00438182
0.00412078
0.00385401
0.00357893
0.00329519
0.00300456
0.00271071
0.00241868
0.00213424
0.00186336
0.00161155
0.00138334
0.0011819
0.00100884
0.000864245
0.000746896
0.000654484
0.000583902
0.000531548
0.000493703
0.000467016
0.000448998
0.000438248
0.000434228
0.000435884
0.000442424
0.00595272
0.00569772
0.00541879
0.00509671
0.00478478
0.00447164
0.00415307
0.00382798
0.00349709
0.00316317
0.0028306
0.00250479
0.00219162
0.00189683
0.00162559
0.00138194
0.00116857
0.000986668
0.000836035
0.000715293
0.000622134
0.00055356
0.000506125
0.000476231
0.000460578
0.000456752
0.000463464
0.000480768
0.000502873
0.000528189
0.00672616
0.0064151
0.00608186
0.00568643
0.00530178
0.00491572
0.00452578
0.00413325
0.00374039
0.0033511
0.00297031
0.00260353
0.00225634
0.00193392
0.0016407
0.00137996
0.00115367
0.000962514
0.000805948
0.000682488
0.000589954
0.000525695
0.000486775
0.000470127
0.000472859
0.000492684
0.000528349
0.000580236
0.000633911
0.000689384
0.00773541
0.00735002
0.00694573
0.00645075
0.00596517
0.00547704
0.00498939
0.00450655
0.00403281
0.00357308
0.00313251
0.00271617
0.0023288
0.00197451
0.0016565
0.00137692
0.00113683
0.000936237
0.000774301
0.000649555
0.000560179
0.000504243
0.000479852
0.000485128
0.000518162
0.000576977
0.000659498
0.000765292
0.000865304
0.000964634
0.00903383
0.00855192
0.00805558
0.00742767
0.00680362
0.00617743
0.00555947
0.00495863
0.00438145
0.00383357
0.00331973
0.00284389
0.00240927
0.00201823
0.00167222
0.00137183
0.00111693
0.000906853
0.000740566
0.000616917
0.000534886
0.00049384
0.000493645
0.000534413
0.000615871
0.000736265
0.00089135
0.00107664
0.0012407
0.00139963
0.01065
0.010043
0.00942309
0.00862478
0.00782398
0.00702476
0.0062453
0.00549978
0.00479683
0.00414236
0.00354028
0.00299303
0.00250184
0.00206691
0.00168761
0.00136276
0.00109099
0.000871019
0.000701918
0.000583293
0.000515513
0.000499867
0.00053852
0.00063394
0.000787566
0.000997354
0.0012554
0.00154968
0.00180309
0.00204106
0.0126956
0.0118797
0.0110585
0.0100602
0.00906413
0.0080765
0.00711872
0.00620793
0.00535516
0.00456807
0.00385143
0.00320758
0.00263686
0.0021381
0.00170922
0.00134782
0.00105172
0.000819477
0.000650605
0.000545733
0.000506531
0.000535508
0.000635518
0.000808844
0.00105584
0.00137283
0.00175002
0.00217401
0.00256986
0.00294935
0.0158727
0.01482
0.0137566
0.0125245
0.0112826
0.0100291
0.00879328
0.00760322
0.0064809
0.00544351
0.00450239
0.0036635
0.00292845
0.00229591
0.00176309
0.00132704
0.000985666
0.000738277
0.000585915
0.000530946
0.000575969
0.000722444
0.000969685
0.00131259
0.00174081
0.00223741
0.00278081
0.00335747
0.0038621
0.00436183
0.0257836
0.0238957
0.0217521
0.0195725
0.017399
0.0152312
0.0131177
0.0111049
0.00923093
0.00752542
0.00600744
0.00468534
0.00355928
0.00262456
0.00187495
0.00130564
0.000915262
0.000706959
0.000687577
0.000865991
0.00125057
0.00184567
0.00264747
0.00364214
0.00480497
0.00610056
0.00748474
0.00894601
0.0104443
0.0117966
0.00362391
0.00360479
0.00358853
0.00357296
0.00355898
0.00354763
0.0035402
0.00353811
0.00354284
0.00355597
0.00357922
0.00361453
0.00366419
0.00373096
0.00381818
0.0039301
0.00407221
0.00425199
0.00447986
0.00477051
0.00514475
0.00563193
0.00627169
0.00711284
0.00821112
0.00962715
0.0114261
0.0138032
0.0174051
0.0278932
0.00360288
0.00358884
0.00357693
0.00356706
0.0035608
0.00355885
0.00356205
0.00357146
0.00358833
0.00361415
0.00365066
0.00369999
0.00376463
0.00384765
0.00395285
0.00408503
0.00425046
0.00445764
0.00471825
0.00504854
0.00547133
0.00601838
0.00673203
0.00766386
0.00887213
0.0104273
0.012443
0.0151539
0.0190689
0.0301605
0.0036043
0.00360088
0.00359904
0.00359895
0.00360232
0.00361013
0.0036235
0.00364366
0.00367202
0.00371015
0.00375992
0.00382356
0.00390376
0.00400382
0.00412787
0.0042812
0.00447083
0.00470617
0.00500008
0.00537025
0.00584129
0.00644714
0.00723252
0.00825097
0.00956213
0.0112458
0.0134595
0.016475
0.0206107
0.0326755
0.00363465
0.00364199
0.00365073
0.00366107
0.00367495
0.00369353
0.00371809
0.00375001
0.0037908
0.00384221
0.00390626
0.00398533
0.00408233
0.00420079
0.0043452
0.0045213
0.00473668
0.00500149
0.00532937
0.00573887
0.00625546
0.00691382
0.00775893
0.00884287
0.0102223
0.0119851
0.0143472
0.0176745
0.021963
0.0353768
0.00368993
0.00370704
0.00372598
0.00374671
0.00377131
0.00380117
0.00383768
0.00388234
0.00393675
0.00400279
0.0040826
0.00417878
0.00429442
0.00443334
0.00460034
0.00480162
0.00504534
0.00534222
0.00570646
0.0061571
0.00671981
0.00742909
0.00832863
0.0094668
0.0108946
0.0127068
0.0151909
0.0188599
0.0231882
0.0382342
0.0037644
0.00379015
0.00381855
0.00384942
0.00388475
0.00392608
0.00397495
0.00403294
0.00410177
0.00418342
0.00428016
0.00439473
0.00453043
0.00469131
0.00488247
0.00511051
0.00538399
0.00571408
0.00611527
0.00660659
0.00721333
0.00796883
0.00891419
0.0100922
0.0115462
0.0133777
0.0159633
0.0200456
0.0242941
0.0413542
0.00385169
0.00388495
0.00392198
0.00396249
0.00400836
0.00406113
0.00412245
0.00419398
0.00427756
0.00437526
0.0044895
0.0046231
0.00477952
0.00496302
0.00517896
0.00543421
0.00573764
0.0061006
0.0065376
0.00706733
0.00771416
0.00850966
0.00949137
0.010695
0.0121544
0.0139776
0.0166467
0.0212564
0.0253113
0.044887
0.00394517
0.00398491
0.00402964
0.00407914
0.00413506
0.00419895
0.00427245
0.00435732
0.00445547
0.00456908
0.00470063
0.0048531
0.00503002
0.0052358
0.005476
0.00575768
0.00608984
0.00648383
0.00695396
0.00751835
0.00820021
0.00902901
0.0100383
0.0112555
0.0127033
0.0144944
0.0172272
0.0225157
0.0262816
0.0489933
0.00403834
0.00408362
0.00413512
0.00419276
0.00425802
0.00433235
0.0044174
0.00451494
0.00462696
0.00475568
0.00490368
0.005074
0.00527026
0.00549697
0.00575981
0.00606594
0.00642432
0.0068462
0.00734555
0.00793985
0.00865113
0.00950688
0.0105367
0.0117587
0.0131821
0.0149225
0.0176947
0.0238401
0.0272562
0.0538027
0.00412529
0.00417526
0.00423258
0.00429741
0.00437102
0.00445481
0.00455037
0.00465949
0.00478414
0.00492661
0.00508949
0.00527589
0.00548952
0.00573494
0.00601785
0.0063454
0.00672648
0.00717215
0.00769604
0.008315
0.00905005
0.00992709
0.0109722
0.0121936
0.0135847
0.0152626
0.0180455
0.0252327
0.028288
0.0593506
0.00420119
0.00425502
0.00431721
0.00438813
0.00446893
0.0045609
0.00466559
0.00478474
0.00492033
0.00507464
0.00525031
0.00545045
0.00567884
0.00594005
0.00623976
0.00658505
0.0069847
0.00744957
0.007993
0.00863128
0.0093847
0.0102782
0.011335
0.0125533
0.0139089
0.0155202
0.0182841
0.0266754
0.0294144
0.065502
0.00426248
0.00431936
0.00438544
0.00446129
0.00454792
0.00464657
0.00475871
0.00488602
0.00503048
0.00519436
0.00538031
0.00559148
0.00583162
0.00610531
0.00641817
0.0067772
0.00719108
0.00767051
0.00822854
0.00888105
0.00964788
0.0105535
0.0116195
0.0128343
0.0141549
0.0157031
0.0184237
0.0281198
0.0306347
0.0718769
0.00430703
0.00436616
0.00443513
0.00451466
0.00460567
0.00470932
0.00482702
0.00496042
0.00511147
0.00528245
0.005476
0.00569527
0.005944
0.00622671
0.006549
0.00691781
0.00734172
0.00783131
0.00839938
0.00906153
0.00983733
0.0107513
0.0118243
0.0130363
0.0143255
0.01582
0.0184835
0.0294833
0.0318898
0.0778695
0.00433406
0.00439465
0.00446551
0.00454746
0.00464133
0.00474824
0.00486955
0.00500688
0.0051622
0.00533776
0.00553621
0.00576066
0.00601483
0.00630322
0.0066314
0.00700628
0.00743639
0.00793217
0.0085063
0.00917415
0.00995519
0.0108742
0.011952
0.0131621
0.0144266
0.0158811
0.0184862
0.0306285
0.0330314
0.0827299
0.00434405
0.00440534
0.00447713
0.00456025
0.00465549
0.00476395
0.00488695
0.00502615
0.00518348
0.0053612
0.00556195
0.0057888
0.00604547
0.00633646
0.00666735
0.00704503
0.00747801
0.00797667
0.00855359
0.00922406
0.0100075
0.010929
0.0120096
0.0132194
0.0144703
0.0159036
0.0184642
0.0312866
0.0337518
0.085499
0.00433835
0.00439967
0.00447148
0.00455461
0.00464985
0.00475828
0.00488125
0.00502039
0.00517765
0.00535529
0.00555593
0.00578263
0.00603914
0.00632998
0.00666075
0.00703838
0.00747137
0.00797012
0.00854719
0.00921789
0.0100017
0.0109237
0.0120049
0.0132153
0.0144667
0.0159007
0.0184577
0.0312747
0.0337432
0.0856051
0.00431693
0.0043776
0.00444856
0.00453058
0.00462446
0.00473132
0.00485252
0.00498973
0.00514486
0.00532019
0.00551832
0.00574237
0.00599608
0.00628404
0.00661191
0.00698664
0.00741681
0.00791287
0.00848746
0.00915603
0.00993814
0.0108587
0.0119384
0.0131503
0.0144162
0.0158726
0.0184682
0.0305967
0.0330089
0.0830339
0.00427857
0.00433785
0.00440701
0.00448671
0.00457783
0.00468149
0.00479911
0.00493235
0.00508316
0.00525379
0.00544687
0.00566554
0.0059136
0.00619569
0.00651751
0.00688612
0.00731017
0.00780025
0.00836918
0.00903261
0.00981025
0.0107267
0.0118027
0.0130175
0.0143092
0.0158068
0.0184578
0.0294424
0.0318615
0.0783325
0.00422308
0.00428019
0.00434657
0.00442274
0.00450963
0.00460843
0.0047206
0.00484781
0.00499203
0.0051555
0.00534089
0.00555134
0.0057907
0.00606365
0.00637597
0.00673478
0.0071489
0.00762906
0.00818835
0.00884273
0.00961213
0.010521
0.0115909
0.0128093
0.0141336
0.0156863
0.0183958
0.0280823
0.0306094
0.0724545
0.00415145
0.00420561
0.00426823
0.00433966
0.0044209
0.00451323
0.00461812
0.00473731
0.00487274
0.00502667
0.00520176
0.00540116
0.00562872
0.00588916
0.00618832
0.00653343
0.00693341
0.00739924
0.00794429
0.00858494
0.00934153
0.0102388
0.0112999
0.0125224
0.0138834
0.0155016
0.0182604
0.0266523
0.0293991
0.0661549
0.00406607
0.0041165
0.0041744
0.00423992
0.0043142
0.00439856
0.00449455
0.0046039
0.00472856
0.00487077
0.00503316
0.00521887
0.00543171
0.0056764
0.00595882
0.00628625
0.00666777
0.00711454
0.00764031
0.00826197
0.0090005
0.00988157
0.010931
0.0121571
0.0135558
0.0152442
0.0180321
0.0252316
0.0282884
0.0600444
0.00397067
0.00401658
0.00406884
0.0041274
0.00419354
0.00426868
0.0043544
0.00445243
0.00456469
0.00469337
0.00484106
0.00501082
0.00520642
0.00543251
0.00569492
0.00600101
0.00635989
0.00678294
0.00728426
0.00788132
0.00859602
0.0094556
0.0104895
0.0117169
0.0131504
0.0149067
0.0176967
0.023865
0.0272771
0.0545111
0.00387017
0.00391078
0.00395652
0.00400718
0.00406424
0.00412919
0.00420362
0.00428925
0.00438793
0.00450179
0.0046333
0.00478546
0.0049619
0.00516716
0.00540699
0.00568865
0.00602131
0.00641645
0.00688842
0.00745534
0.00814023
0.00897233
0.00998545
0.0112089
0.01267
0.0144836
0.0172478
0.0225671
0.0263271
0.049699
0.0037705
0.00380496
0.00384331
0.00388527
0.00393254
0.00398664
0.00404916
0.00412174
0.00420617
0.00430446
0.00441899
0.00455258
0.00470871
0.00489179
0.00510735
0.00536251
0.00566635
0.00603028
0.00646886
0.00700066
0.00764989
0.00844799
0.00943324
0.0106443
0.0121208
0.013974
0.0166867
0.0213325
0.0253856
0.045582
0.00367814
0.00370546
0.00373554
0.00376815
0.00380516
0.00384807
0.00389841
0.00395772
0.0040277
0.00411025
0.00420761
0.00432242
0.00445801
0.0046185
0.00480923
0.00503706
0.00531075
0.00564158
0.00604396
0.0065368
0.00714522
0.00790269
0.00885156
0.0100385
0.0115136
0.0133827
0.016022
0.020144
0.0244018
0.0420391
0.00359968
0.00361876
0.0036397
0.00366244
0.00368893
0.00372055
0.00375871
0.00380487
0.00386062
0.00392777
0.00400839
0.00410498
0.00422058
0.00435913
0.00452562
0.00472654
0.00497028
0.00526765
0.00563275
0.0060844
0.00664824
0.00735914
0.00826256
0.00941151
0.0108645
0.0127211
0.0152665
0.0189786
0.0233342
0.0389161
0.00354145
0.00355112
0.00356214
0.00357464
0.00359048
0.00361084
0.00363704
0.00367044
0.00371255
0.00376505
0.00382988
0.00390935
0.0040063
0.00412435
0.00426818
0.00444383
0.00465914
0.00492432
0.00525285
0.0056631
0.00618065
0.00684086
0.00769086
0.00878785
0.0101963
0.012009
0.0144374
0.0178124
0.0221523
0.0360676
0.0035091
0.00350835
0.00350896
0.00351101
0.00351617
0.0035255
0.0035402
0.00356152
0.00359085
0.00362974
0.00368
0.00374381
0.00382382
0.0039234
0.00404688
0.00419981
0.00438943
0.00462519
0.0049198
0.00529091
0.00576341
0.00637218
0.00716438
0.00819878
0.00954234
0.0112797
0.0135627
0.0166324
0.0208476
0.0333878
0.00350662
0.00349553
0.00348602
0.00347797
0.00347302
0.003472
0.00347588
0.00348575
0.00350288
0.00352878
0.0035652
0.00361425
0.00367847
0.00376099
0.00386577
0.00399777
0.00416344
0.00437135
0.00463314
0.00496516
0.0053907
0.00594258
0.00666558
0.0076162
0.00885882
0.010468
0.0125527
0.0153245
0.0193432
0.0308911
0.00352846
0.00351196
0.00349725
0.00348262
0.0034691
0.00345782
0.00345013
0.00344751
0.00345152
0.00346381
0.00348615
0.00352058
0.00356946
0.00363565
0.00372262
0.00383468
0.00397737
0.00415829
0.0043881
0.0046817
0.00506037
0.0055545
0.00620595
0.00706803
0.00820089
0.00966878
0.0115348
0.0139798
0.0177032
0.0286373
0.0265193
0.0245986
0.0223919
0.0201319
0.0178747
0.0156275
0.0134418
0.0113661
0.00943912
0.00769058
0.00613897
0.00479174
0.00364799
0.00270201
0.00194668
0.00137649
0.000989565
0.000788817
0.000780906
0.00097449
0.0013776
0.00199391
0.00281835
0.00383526
0.0050175
0.00632689
0.00771679
0.00917442
0.0106585
0.0119944
0.0161841
0.0151396
0.0140637
0.0127975
0.0115153
0.0102228
0.00895199
0.00773267
0.00658716
0.00553221
0.00457839
0.00373072
0.00298997
0.00235411
0.00181977
0.0013835
0.00104279
0.000796488
0.000645236
0.000591067
0.000636268
0.000782044
0.00102749
0.0013673
0.00179095
0.00228115
0.00281648
0.00338423
0.0038744
0.00436702
0.0128803
0.0120781
0.0112586
0.0102467
0.00922953
0.00821893
0.00723918
0.00630922
0.00544085
0.00464176
0.00391636
0.00326639
0.00269159
0.00219025
0.00175979
0.00139731
0.00110014
0.000866237
0.000694513
0.000584985
0.000538832
0.000558301
0.000646302
0.000805506
0.00103698
0.00133799
0.00170011
0.00211175
0.00249616
0.00287243
0.0107597
0.0101604
0.00954155
0.00873499
0.0079227
0.00711198
0.00632209
0.00556783
0.00485794
0.00419826
0.00359248
0.00304275
0.00255003
0.00211425
0.0017345
0.00140929
0.00113685
0.000915371
0.000743336
0.000619789
0.000544755
0.000519583
0.000546992
0.000630396
0.00077228
0.000971446
0.0012205
0.0015078
0.00175759
0.00199568
0.00907606
0.00859723
0.00809973
0.00746761
0.00684044
0.00621311
0.00559538
0.00499545
0.00441937
0.00387253
0.00335957
0.0028845
0.00245057
0.00206015
0.00171463
0.00141446
0.00115921
0.000947796
0.000778706
0.00065037
0.000561617
0.00051212
0.000502566
0.000534244
0.000608012
0.000722786
0.000874259
0.00105721
0.00122082
0.00137963
0.00772704
0.00734272
0.00693698
0.00644128
0.00595806
0.00547555
0.004995
0.00451947
0.00405232
0.00359803
0.00316165
0.00274841
0.00236328
0.00201057
0.00169359
0.00141442
0.00117391
0.000971795
0.000806916
0.000677613
0.000582134
0.000518995
0.000487105
0.000485564
0.00051331
0.000568804
0.000649845
0.000755258
0.00085593
0.000955434
0.00668366
0.0063738
0.00604033
0.00564698
0.00526771
0.00489019
0.00451046
0.00412844
0.00374526
0.00336413
0.00298978
0.0026278
0.00228405
0.001964
0.0016722
0.00141197
0.00118517
0.000992295
0.000832713
0.000704971
0.00060714
0.000537062
0.000492445
0.000470867
0.000469901
0.000487479
0.00052228
0.000574379
0.000629403
0.000686289
0.00588867
0.00563579
0.00535813
0.00503983
0.00473444
0.00443074
0.00412326
0.00380981
0.00348999
0.00316576
0.00284109
0.00252136
0.00221264
0.00192096
0.00165162
0.00140872
0.00119489
0.0010113
0.000857804
0.000733244
0.000635687
0.000562607
0.000511035
0.00047773
0.000459565
0.000454148
0.000460145
0.000477549
0.000500898
0.000527961
0.00528611
0.00507497
0.00483834
0.00457384
0.00432084
0.00406918
0.00381345
0.00355016
0.00327797
0.00299782
0.00271282
0.00242783
0.00214874
0.0018817
0.00163237
0.00140532
0.00120371
0.00102921
0.000882121
0.000761539
0.000665599
0.000591638
0.000536398
0.00049633
0.000468069
0.000449003
0.000437632
0.000433392
0.000435628
0.000443306
0.00482744
0.00464597
0.00443958
0.00421378
0.00399797
0.00378338
0.00356478
0.00333824
0.00310188
0.00285584
0.00260247
0.00234599
0.0020919
0.00184621
0.00161463
0.00140198
0.00121172
0.0010459
0.000905122
0.000788724
0.000694953
0.000621168
0.000564073
0.0005201
0.000485886
0.000458705
0.000436859
0.000419345
0.000407936
0.000403858
0.00447541
0.0043152
0.00413127
0.00393331
0.0037443
0.00355635
0.00336467
0.00316523
0.00295584
0.00273615
0.00250789
0.00227471
0.00204162
0.00181434
0.00159844
0.00139874
0.00121888
0.00106111
0.00092628
0.000813918
0.00072242
0.000649261
0.000591262
0.000544976
0.000507147
0.00047501
0.000446718
0.000420997
0.000400912
0.000389931
0.00420276
0.00405836
0.00389143
0.00371413
0.0035445
0.00337576
0.00320365
0.00302421
0.0028351
0.00263567
0.00242724
0.00221298
0.00199746
0.00178595
0.00158376
0.0013956
0.0012251
0.00107465
0.000945223
0.000836549
0.000747181
0.000674762
0.000616307
0.000568552
0.000528383
0.000493073
0.000460618
0.000429806
0.000404216
0.000389309
0.00399046
0.00385792
0.00370417
0.00354248
0.00338709
0.00323245
0.00307456
0.00290979
0.00273577
0.00255178
0.00235891
0.00215995
0.001959
0.00176089
0.00157057
0.00139253
0.00123033
0.00108637
0.000961747
0.000856315
0.000768803
0.000697048
0.000638277
0.000589447
0.000547586
0.00051002
0.000474846
0.000440879
0.000411861
0.000394946
0.00382499
0.00370159
0.00355833
0.00340871
0.00326401
0.00311958
0.00297184
0.00281759
0.00265461
0.00248227
0.00230151
0.00211483
0.00192588
0.00173903
0.00155885
0.00138954
0.00123456
0.00109626
0.000975795
0.000873122
0.000787132
0.000715845
0.000656694
0.000606875
0.000563592
0.000524364
0.000487395
0.000451522
0.000420488
0.000402844
0.00369653
0.00358046
0.0034458
0.00330553
0.00316877
0.00303169
0.00289095
0.002744
0.00258893
0.00242525
0.00225385
0.00207694
0.00189775
0.00172023
0.00154856
0.00138668
0.00123786
0.00110439
0.000987436
0.000887032
0.000802199
0.000731116
0.000671433
0.00062058
0.000575986
0.000535464
0.00049728
0.000460332
0.000428271
0.000410728
0.00359794
0.00348786
0.00336025
0.00322725
0.00309629
0.00296427
0.00282815
0.00268602
0.00253649
0.00237916
0.00221491
0.00204565
0.00187428
0.00170434
0.0015397
0.001384
0.00124034
0.00111089
0.000996815
0.000898191
0.000814134
0.000742981
0.00068258
0.000630595
0.000584772
0.000543174
0.000504149
0.000466674
0.000434243
0.000417292
0.00352395
0.00341867
0.00329674
0.00316932
0.00304238
0.00291357
0.00278044
0.00264129
0.00249549
0.00234273
0.00218377
0.00202037
0.0018551
0.00169122
0.00153224
0.00138157
0.00124211
0.00111592
0.00100411
0.000906777
0.000823125
0.000751634
0.000690348
0.000637182
0.000590174
0.000547639
0.00050802
0.000470359
0.000437951
0.000421765
0.00347044
0.00336889
0.00325139
0.00312809
0.00300384
0.00287692
0.00274551
0.00260805
0.00246457
0.00231488
0.00215967
0.00200055
0.00183991
0.00168069
0.00152615
0.00137945
0.0012433
0.00111963
0.00100949
0.000912974
0.000829365
0.000757289
0.000695001
0.000640654
0.000592497
0.000549125
0.000509058
0.000471399
0.00043921
0.000423715
0.00343406
0.00333535
0.0032213
0.00310094
0.00297833
0.00285233
0.00272167
0.00258505
0.00244266
0.00229476
0.00214195
0.00198575
0.00182839
0.0016726
0.0015214
0.0013777
0.00124401
0.00112215
0.00101309
0.000916938
0.00083303
0.000760148
0.000696751
0.00064121
0.000591993
0.000547873
0.000507429
0.000469871
0.000437981
0.000422967
0.00341205
0.00331551
0.00320419
0.003086
0.00296426
0.00283846
0.00270776
0.00257129
0.00242897
0.00228171
0.00213008
0.00197557
0.0018203
0.00166683
0.00151794
0.00137632
0.00124431
0.00112358
0.00101503
0.000918786
0.000834252
0.000760359
0.000695763
0.000639039
0.000588825
0.000543958
0.000503282
0.000465895
0.000434333
0.00041954
0.00340214
0.0033074
0.00319832
0.00308182
0.00296055
0.00283444
0.00270306
0.00256601
0.00242291
0.00227523
0.00212369
0.00196974
0.00181546
0.00166327
0.00151573
0.00137535
0.00124424
0.00112397
0.00101538
0.00091859
0.000833112
0.000758015
0.000692137
0.000634235
0.000583116
0.00053765
0.000496805
0.000459646
0.000428431
0.000413572
0.00340236
0.00330943
0.00320239
0.00308732
0.00296638
0.00283959
0.00270703
0.00256868
0.00242411
0.00227499
0.00212252
0.00196808
0.00181376
0.00166186
0.00151476
0.00137476
0.00124381
0.00112334
0.00101415
0.000916386
0.000829648
0.000753161
0.000685933
0.000626879
0.000574964
0.000529042
0.000488149
0.00045132
0.000420491
0.000405305
0.00341092
0.00332013
0.0032152
0.00310155
0.00298096
0.00285347
0.00271927
0.00257891
0.00243228
0.00228081
0.00212645
0.00197056
0.0018152
0.0016626
0.00151501
0.00137454
0.00124298
0.00112167
0.00101133
0.000912162
0.000823868
0.000745825
0.0006772
0.000617052
0.00056441
0.000518244
0.00047751
0.000441124
0.000410773
0.000395028
0.00342605
0.00333805
0.00323565
0.00312371
0.00300361
0.00287544
0.00273941
0.00259648
0.00244727
0.00229267
0.00213553
0.00197724
0.00181985
0.00166556
0.00151651
0.00137467
0.00124171
0.00111886
0.00100684
0.000905864
0.000815755
0.000736028
0.000665996
0.00060483