/*--------------------------------*- C++ -*----------------------------------*\
  =========                 |
  \\      /  F ield         | OpenFOAM: The Open Source CFD Toolbox
   \\    /   O peration     | Website:  https://openfoam.org
    \\  /    A nd           | Version:  12
     \\/     M anipulation  |
\*---------------------------------------------------------------------------*/
FoamFile
{
    format      ascii;
    class       volVectorField;
    location    "360";
    object      U;
}
// * * * * * * * * * * * * * * * * * * * * * * * * * * * * * * * * * * * * * //

dimensions      [0 1 -1 0 0 0 0];

internalField   nonuniform List<vector> 
6750
(
(0.200065 -0.00312059 0)
(0.200334 -0.00958864 0)
(0.200601 -0.0155817 0)
(0.200832 -0.021157 0)
(0.200689 -0.0263973 0)
(0.200037 -0.00347819 0)
(0.200271 -0.0101449 0)
(0.200458 -0.0160525 0)
(0.200516 -0.0213269 0)
(0.200374 -0.0260405 0)
(0.200026 -0.00363731 0)
(0.200122 -0.0103569 0)
(0.200123 -0.0161214 0)
(0.19998 -0.0210922 0)
(0.19971 -0.0253525 0)
(0.20001 -0.00366806 0)
(0.199953 -0.0102923 0)
(0.199761 -0.0158486 0)
(0.199437 -0.0205372 0)
(0.199037 -0.0244795 0)
(0.199996 -0.00359782 0)
(0.199798 -0.00999874 0)
(0.199422 -0.0152924 0)
(0.198921 -0.0197077 0)
(0.198376 -0.0233928 0)
(0.199984 -0.00344431 0)
(0.199656 -0.00951136 0)
(0.199104 -0.0144867 0)
(0.198422 -0.0186129 0)
(0.197713 -0.0220487 0)
(0.199974 -0.00322202 0)
(0.199524 -0.0088577 0)
(0.198799 -0.0134566 0)
(0.197931 -0.0172615 0)
(0.197044 -0.0204301 0)
(0.199965 -0.002942 0)
(0.199398 -0.00806055 0)
(0.198505 -0.0122256 0)
(0.197451 -0.0156697 0)
(0.196378 -0.0185416 0)
(0.199956 -0.00261384 0)
(0.199281 -0.00714234 0)
(0.198228 -0.0108214 0)
(0.196995 -0.0138648 0)
(0.195739 -0.0164074 0)
(0.199949 -0.00224727 0)
(0.199175 -0.00612761 0)
(0.197976 -0.00927759 0)
(0.196579 -0.0118855 0)
(0.195152 -0.0140687 0)
(0.199943 -0.00185261 0)
(0.199084 -0.00504307 0)
(0.197758 -0.00763255 0)
(0.196219 -0.00977845 0)
(0.194641 -0.0115781 0)
(0.199938 -0.00144048 0)
(0.199011 -0.00391634 0)
(0.197583 -0.00592674 0)
(0.195927 -0.00759397 0)
(0.194226 -0.00899416 0)
(0.199935 -0.00102119 0)
(0.198957 -0.00277429 0)
(0.197453 -0.00419987 0)
(0.195712 -0.00538204 0)
(0.193918 -0.00637567 0)
(0.199931 -0.000603946 0)
(0.198926 -0.00164162 0)
(0.197371 -0.00248795 0)
(0.195574 -0.00318823 0)
(0.19372 -0.00377698 0)
(0.199921 -0.000200482 0)
(0.198921 -0.000537859 0)
(0.197334 -0.000819598 0)
(0.19551 -0.00105058 0)
(0.193626 -0.00124456 0)
(0.199921 0.00020036 0)
(0.198921 0.000537506 0)
(0.197334 0.000819044 0)
(0.19551 0.00104985 0)
(0.193626 0.0012437 0)
(0.199931 0.000603824 0)
(0.198926 0.00164127 0)
(0.197371 0.0024874 0)
(0.195574 0.00318751 0)
(0.19372 0.00377612 0)
(0.199935 0.00102106 0)
(0.198957 0.00277394 0)
(0.197453 0.00419932 0)
(0.195712 0.00538132 0)
(0.193918 0.00637481 0)
(0.199938 0.00144036 0)
(0.199011 0.00391599 0)
(0.197583 0.00592619 0)
(0.195927 0.00759326 0)
(0.194226 0.00899331 0)
(0.199943 0.00185249 0)
(0.199084 0.00504272 0)
(0.197758 0.007632 0)
(0.196219 0.00977773 0)
(0.194641 0.0115773 0)
(0.199949 0.00224715 0)
(0.199175 0.00612726 0)
(0.197976 0.00927705 0)
(0.196579 0.0118848 0)
(0.195152 0.0140679 0)
(0.199956 0.00261373 0)
(0.199281 0.00714199 0)
(0.198227 0.0108209 0)
(0.196995 0.0138641 0)
(0.195739 0.0164066 0)
(0.199965 0.00294189 0)
(0.199398 0.00806021 0)
(0.198505 0.0122251 0)
(0.197451 0.015669 0)
(0.196378 0.0185407 0)
(0.199974 0.0032219 0)
(0.199524 0.00885737 0)
(0.198799 0.0134561 0)
(0.197931 0.0172608 0)
(0.197044 0.0204293 0)
(0.199984 0.00344419 0)
(0.199656 0.00951102 0)
(0.199104 0.0144862 0)
(0.198422 0.0186122 0)
(0.197713 0.0220478 0)
(0.199996 0.00359771 0)
(0.199798 0.00999841 0)
(0.199422 0.0152918 0)
(0.198921 0.019707 0)
(0.198376 0.023392 0)
(0.20001 0.00366795 0)
(0.199953 0.010292 0)
(0.199761 0.0158481 0)
(0.199437 0.0205365 0)
(0.199037 0.0244786 0)
(0.200026 0.00363721 0)
(0.200122 0.0103566 0)
(0.200123 0.0161209 0)
(0.19998 0.0210915 0)
(0.19971 0.0253517 0)
(0.200037 0.00347809 0)
(0.200271 0.0101445 0)
(0.200458 0.016052 0)
(0.200516 0.0213262 0)
(0.200374 0.0260397 0)
(0.200065 0.00312049 0)
(0.200334 0.00958833 0)
(0.200601 0.0155812 0)
(0.200831 0.0211563 0)
(0.200689 0.0263964 0)
(0.19851 -0.0381715 0)
(0.196771 -0.0437668 0)
(0.19529 -0.0488917 0)
(0.194259 -0.0534929 2.8181e-22)
(0.193531 -0.0574586 0)
(0.193048 -0.0607278 0)
(0.192799 -0.0632343 -1.92918e-20)
(0.192771 -0.0648825 1.94621e-20)
(0.192944 -0.0655553 1.58005e-22)
(0.193246 -0.0651982 1.01178e-20)
(0.19365 -0.063683 1.92657e-23)
(0.194077 -0.0608569 -1.25399e-23)
(0.194448 -0.0567896 -5.21e-21)
(0.194679 -0.0515507 -5.1705e-21)
(0.194696 -0.0452835 -1.20736e-20)
(0.194444 -0.0381981 1.20779e-20)
(0.193893 -0.0305541 -4.84741e-21)
(0.193043 -0.0226322 -4.49904e-21)
(0.191923 -0.0147138 3.11567e-22)
(0.190583 -0.0070544 3.53661e-22)
(0.189074 0.000135587 8.64047e-21)
(0.187472 0.00674147 -1.27329e-22)
(0.185861 0.0126395 1.47929e-20)
(0.184299 0.0177729 -1.4662e-20)
(0.182838 0.022131 0)
(0.181518 0.0257345 0)
(0.18037 0.0286245 -1.86264e-22)
(0.179419 0.0308538 0)
(0.178685 0.0324774 0)
(0.178159 0.0335208 0)
(0.197622 -0.0415329 0)
(0.196045 -0.0470381 0)
(0.194851 -0.0517302 0)
(0.194008 -0.0558205 -2.66351e-22)
(0.193399 -0.0592953 0)
(0.19301 -0.0621145 0)
(0.19284 -0.0642067 1.92086e-20)
(0.192874 -0.065475 -1.96703e-20)
(0.19309 -0.0658107 -1.48718e-22)
(0.193415 -0.0651816 0)
(0.193825 -0.0634227 0)
(0.194232 -0.060452 -9.56735e-21)
(0.194569 -0.0563326 9.59748e-21)
(0.194758 -0.0511355 0)
(0.194731 -0.0449975 -3.22042e-20)
(0.194442 -0.0381123 3.22044e-20)
(0.193865 -0.0307144 0)
(0.193003 -0.0230592 8.71128e-21)
(0.191885 -0.0153983 -8.75555e-21)
(0.190554 -0.00796244 0)
(0.189072 -0.000942044 0)
(0.1875 0.00554214 1.19453e-22)
(0.185904 0.0113807 -1.42013e-20)
(0.184349 0.0165159 1.43084e-20)
(0.182883 0.0209292 0)
(0.181545 0.0246322 0)
(0.180363 0.0276572 1.75403e-22)
(0.179358 0.0300497 0)
(0.178556 0.0318678 0)
(0.177965 0.0331874 0)
(0.196785 -0.0441221 0)
(0.195527 -0.0491169 0)
(0.194514 -0.0533904 0)
(0.193763 -0.057147 1.96026e-20)
(0.193228 -0.0603396 -1.98202e-20)
(0.192911 -0.0629047 2.06928e-20)
(0.192808 -0.0647594 -2.08873e-20)
(0.1929 -0.0658057 3.21837e-22)
(0.193159 -0.0659435 0)
(0.193515 -0.0651475 0)
(0.19394 -0.0632314 -3.21279e-22)
(0.194342 -0.060166 0)
(0.194657 -0.0560024 0)
(0.194808 -0.0508141 -7.60641e-23)
(0.19473 -0.0447358 -5.30134e-20)
(0.19438 -0.037954 5.30138e-20)
(0.193738 -0.0306918 7.03943e-23)
(0.192812 -0.0231894 0)
(0.191633 -0.0156831 0)
(0.190249 -0.00838728 2.55039e-22)
(0.188719 -0.00147943 0)
(0.187107 0.00490463 0)
(0.185478 0.0106786 -2.3661e-22)
(0.183891 0.015786 -1.37895e-20)
(0.182393 0.0202055 1.36611e-20)
(0.181021 0.0239442 -1.26717e-20)
(0.1798 0.0270289 1.25139e-20)
(0.178748 0.0294976 0)
(0.177895 0.0314082 0)
(0.177319 0.032905 0)
(0.196046 -0.0464489 0)
(0.195012 -0.051024 -4.244e-20)
(0.194102 -0.0549631 2.13993e-20)
(0.193421 -0.0584272 4.44753e-20)
(0.192956 -0.0613511 -4.50137e-20)
(0.192708 -0.0636632 2.23903e-20)
(0.192666 -0.0652782 0)
(0.192816 -0.0661005 7.02999e-22)
(0.193111 -0.0660474 0)
(0.193508 -0.0650741 0)
(0.193948 -0.0630056 1.13985e-20)
(0.19435 -0.0598481 -1.07721e-20)
(0.194646 -0.0556414 0)
(0.194757 -0.0504623 7.98574e-23)
(0.194619 -0.0444437 -7.34119e-20)
(0.194194 -0.0377651 7.34124e-20)
(0.193464 -0.0306388 -7.39047e-23)
(0.192443 -0.0232911 0)
(0.191165 -0.0159439 -8.51624e-21)
(0.189684 -0.0087977 7.95572e-21)
(0.188062 -0.00201916 2.43471e-22)
(0.186367 0.00426459 0)
(0.184663 0.00996816 -4.45901e-22)
(0.183009 0.0150391 0)
(0.181452 0.019456 1.30311e-20)
(0.180026 0.0232234 -2.48325e-20)
(0.178755 0.0263634 2.34729e-20)
(0.177651 0.0289071 1.05358e-20)
(0.176746 0.0309083 -2.17526e-20)
(0.176204 0.0325822 0)
(0.195288 -0.0486651 0)
(0.194389 -0.0528759 4.76299e-20)
(0.193562 -0.0565027 -4.68045e-20)
(0.192952 -0.0596786 0)
(0.192557 -0.0623336 0)
(0.192372 -0.0643923 7.62093e-22)
(0.192389 -0.065768 0)
(0.192592 -0.0663661 -7.36589e-22)
(0.192925 -0.0661258 1.16301e-20)
(0.193356 -0.0649669 -1.17898e-20)
(0.19381 -0.06275 -1.1649e-20)
(0.19421 -0.059496 1.13471e-20)
(0.194482 -0.0552408 3.38706e-22)
(0.194546 -0.0500643 -1.63515e-22)
(0.194342 -0.0440977 -9.34198e-20)
(0.19383 -0.0375149 9.34203e-20)
(0.192999 -0.0305185 1.44744e-22)
(0.191864 -0.0233225 -2.77038e-22)
(0.190466 -0.0161351 8.51271e-21)
(0.188864 -0.00914372 -8.20531e-21)
(0.187125 -0.00250413 -8.06649e-21)
(0.185319 0.00366535 7.75563e-21)
(0.183513 0.00928329 4.67302e-22)
(0.181766 0.0143008 0)
(0.180126 0.0186974 -4.03096e-22)
(0.178627 0.0224763 0)
(0.177292 0.0256563 0)
(0.176127 0.0282626 -2.23291e-20)
(0.175162 0.030343 2.13549e-20)
(0.174648 0.0321849 0)
(0.194434 -0.050772 4.90189e-20)
(0.19362 -0.0546346 -7.70587e-20)
(0.192868 -0.0579619 2.53894e-20)
(0.192329 -0.0608608 0)
(0.191999 -0.0632569 2.56757e-20)
(0.191875 -0.0650708 -2.51439e-20)
(0.191946 -0.0662147 2.47332e-20)
(0.192199 -0.0665969 -2.56271e-20)
(0.192568 -0.066172 0)
(0.193027 -0.0648258 -7.74794e-22)
(0.193488 -0.0624642 1.18695e-20)
(0.19388 -0.0591098 -6.17555e-21)
(0.194122 -0.0547993 -9.30562e-22)
(0.194134 -0.0496154 -5.39742e-21)
(0.193855 -0.0436886 -1.13065e-19)
(0.19325 -0.0371883 1.13061e-19)
(0.192308 -0.0303091 -4.8283e-21)
(0.191051 -0.0232546 7.71786e-22)
(0.189523 -0.0162208 -4.07023e-21)
(0.187788 -0.00938329 8.47249e-21)
(0.185917 -0.00288707 4.81002e-22)
(0.183984 0.00315771 0)
(0.182059 0.00867546 -1.41616e-20)
(0.180202 0.0136214 1.44418e-20)
(0.178461 0.017977 -1.33035e-20)
(0.176873 0.0217454 1.27749e-20)
(0.175458 0.0249431 7.28292e-22)
(0.174222 0.0275909 1.12338e-20)
(0.173189 0.0297303 -3.27944e-20)
(0.172685 0.0317156 2.31477e-20)
(0.193439 -0.0527532 -2.56697e-20)
(0.192678 -0.0562817 2.89951e-20)
(0.191996 -0.0593275 2.90389e-20)
(0.191522 -0.0619649 -2.94455e-20)
(0.191254 -0.0641141 2.75251e-20)
(0.191186 -0.0656925 -2.95796e-20)
(0.19131 -0.0666128 -8.84825e-22)
(0.191607 -0.0667881 0)
(0.192008 -0.0661783 1.30818e-20)
(0.192487 -0.0646457 3.73444e-22)
(0.192951 -0.0621414 3.2283e-22)
(0.193327 -0.058683 -1.2908e-20)
(0.193531 -0.0543103 -5.39554e-21)
(0.193483 -0.049109 8.53625e-21)
(0.193125 -0.0432096 -1.34824e-19)
(0.19242 -0.0367782 1.29573e-19)
(0.191365 -0.030003 7.21804e-21)
(0.189982 -0.0230783 -5.29069e-21)
(0.188321 -0.0161901 -8.51057e-21)
(0.186449 -0.00950279 -1.21901e-22)
(0.184441 -0.00315166 -1.639e-22)
(0.182374 0.00276137 7.62939e-21)
(0.180321 0.00816706 0)
(0.178343 0.0130252 3.85578e-22)
(0.176491 0.0173201 -1.19474e-20)
(0.174801 0.0210558 1.26249e-20)
(0.173296 0.0242481 -1.17063e-20)
(0.171977 0.0269144 1.08125e-20)
(0.170866 0.0290907 1.06981e-20)
(0.170349 0.0311879 -1.21226e-20)
(0.192265 -0.0546045 0)
(0.191538 -0.0578174 2.72512e-20)
(0.190918 -0.0606016 -3.31889e-20)
(0.190505 -0.0629922 3.12662e-20)
(0.190294 -0.0649051 -2.98561e-20)
(0.19028 -0.066256 2.74094e-20)
(0.190453 -0.0669593 -2.77581e-20)
(0.190784 -0.0669361 -1.8108e-21)
(0.191217 -0.0661342 -8.86347e-22)
(0.191707 -0.0644187 -8.64508e-22)
(0.192166 -0.0617724 -8.33279e-22)
(0.192519 -0.0582061 4.01748e-22)
(0.192678 -0.0537645 -6.36135e-21)
(0.192565 -0.0485368 3.15707e-21)
(0.192122 -0.042654 -1.47785e-19)
(0.191316 -0.0362795 1.53164e-19)
(0.190146 -0.0295962 2.24684e-21)
(0.188639 -0.0227908 -4.18672e-21)
(0.186846 -0.0160399 2.65871e-22)
(0.184838 -0.00949848 1.02739e-21)
(0.182694 -0.00329243 4.71463e-22)
(0.180493 0.00248424 4.45959e-22)
(0.17831 0.00776869 8.46572e-22)
(0.176208 0.0125256 -1.39897e-20)
(0.174238 0.0167427 1.37429e-20)
(0.17244 0.0204255 -1.20302e-20)
(0.170834 0.0235902 1.11101e-20)
(0.169424 0.0262523 -9.71147e-21)
(0.168227 0.0284438 1.16242e-20)
(0.167675 0.0306196 0)
(0.190877 -0.0563272 0)
(0.19017 -0.0592443 1.97884e-21)
(0.189608 -0.0617848 -2.74303e-20)
(0.189252 -0.0639415 4.1539e-22)
(0.189094 -0.065627 3.19255e-20)
(0.18913 -0.0667571 1.95101e-21)
(0.189349 -0.0672464 1.95156e-21)
(0.189704 -0.0670317 -1.30553e-20)
(0.190164 -0.0660314 1.61323e-20)
(0.190659 -0.0641387 -4.9588e-24)
(0.191107 -0.0613474 -6.83431e-21)
(0.191428 -0.0576688 6.87536e-21)
(0.191535 -0.0531523 -2.69723e-21)
(0.191351 -0.0478905 3.107e-21)
(0.190821 -0.042015 -1.68611e-19)
(0.189914 -0.0356874 1.68611e-19)
(0.188631 -0.0290858 2.41177e-21)
(0.187002 -0.0223903 -2.70142e-21)
(0.185082 -0.0157692 3.95042e-21)
(0.182944 -0.00936881 -5.22347e-21)
(0.180669 -0.00330655 -2.92547e-23)
(0.178339 0.00233113 7.05165e-21)
(0.176028 0.00748769 -7.89596e-21)
(0.173803 0.0121328 -7.85078e-22)
(0.171716 0.0162576 -8.04918e-22)
(0.169806 0.0198701 1.17492e-20)
(0.168095 0.022987 -3.29872e-22)
(0.166587 0.0256236 -1.24318e-20)
(0.165298 0.0278095 0)
(0.164691 0.0300309 0)
(0.18924 -0.0579236 0)
(0.188546 -0.0605636 -3.53292e-20)
(0.188037 -0.0628757 4.09926e-22)
(0.187735 -0.0648092 5.22131e-22)
(0.187627 -0.0662749 6.5332e-20)
(0.187709 -0.0671894 -3.38882e-20)
(0.187968 -0.0674697 -2.03951e-21)
(0.188348 -0.0670628 0)
(0.188825 -0.0658614 1.44637e-20)
(0.189316 -0.0637935 -1.46678e-20)
(0.189746 -0.060855 7.14505e-21)
(0.190029 -0.0570606 -3.9911e-22)
(0.190078 -0.0524642 -6.82386e-21)
(0.18982 -0.0471619 1.92917e-22)
(0.1892 -0.0412865 -1.85935e-19)
(0.188192 -0.0349977 1.86018e-19)
(0.186799 -0.0284695 -1.54423e-22)
(0.185054 -0.021876 -4.51563e-21)
(0.183015 -0.0153781 2.93433e-22)
(0.180755 -0.00911403 5.18301e-21)
(0.178357 -0.00319349 -7.82846e-21)
(0.175905 0.00230417 7.24325e-21)
(0.173474 0.00732839 0)
(0.171131 0.0118536 8.20541e-22)
(0.168929 0.0158748 -1.1874e-20)
(0.166908 0.0194024 2.37678e-20)
(0.165092 0.0224542 -3.06573e-22)
(0.163483 0.0250461 5.57564e-22)
(0.162099 0.027207 -1.04016e-20)
(0.16142 0.0294427 0)
(0.187323 -0.0593956 -4.55066e-21)
(0.186638 -0.0617752 0)
(0.18618 -0.0638714 -2.22171e-21)
(0.185928 -0.0655904 3.3399e-20)
(0.185868 -0.0668419 -3.63042e-20)
(0.185993 -0.0675449 3.51029e-20)
(0.186284 -0.0676212 -3.54028e-20)
(0.186688 -0.0670164 -1.6721e-20)
(0.187173 -0.0656134 3.53605e-20)
(0.187655 -0.0633713 2.12072e-22)
(0.188059 -0.0602838 -1.4819e-20)
(0.188297 -0.0563704 7.05817e-21)
(0.188284 -0.0516905 -3.77972e-21)
(0.187948 -0.0463433 -5.0737e-21)
(0.187239 -0.0404626 -2.01044e-19)
(0.186131 -0.0342067 2.03822e-19)
(0.184633 -0.0277458 -3.60614e-21)
(0.182778 -0.0212482 -2.06925e-21)
(0.180627 -0.014868 4.48279e-21)
(0.178255 -0.00873605 -8.6933e-21)
(0.175746 -0.00295484 2.99944e-23)
(0.173182 0.00240285 1.29319e-20)
(0.17064 0.00729209 -6.62403e-21)
(0.168187 0.0116919 -1.19465e-20)
(0.165877 0.0156009 1.1781e-20)
(0.163751 0.0190319 -1.09549e-20)
(0.161831 0.0220043 1.13447e-20)
(0.160122 0.0245349 -6.01582e-22)
(0.158642 0.0266535 0)
(0.157879 0.0288754 1.43374e-21)
(0.185093 -0.0607442 4.73272e-21)
(0.184415 -0.0628777 -4.01263e-20)
(0.184007 -0.0647674 3.84628e-20)
(0.183805 -0.0662784 2.36943e-21)
(0.18379 -0.0673198 2.36045e-21)
(0.183957 -0.0678126 0)
(0.184268 -0.0676896 -2.31034e-21)
(0.184695 -0.0668787 -1.99244e-20)
(0.185181 -0.0652766 3.39445e-20)
(0.185649 -0.0628596 -1.83363e-20)
(0.186021 -0.0596213 -1.00407e-21)
(0.186209 -0.0555871 7.32641e-21)
(0.18613 -0.0508214 -7.36578e-21)
(0.185715 -0.0454267 -2.04548e-22)
(0.184916 -0.0395376 -2.18182e-19)
(0.183712 -0.0333111 2.18095e-19)
(0.182114 -0.0269135 1.56665e-22)
(0.180158 -0.0205077 -4.47979e-21)
(0.177905 -0.0142412 4.45591e-21)
(0.175432 -0.00823802 5.03734e-22)
(0.172822 -0.00259386 -6.47122e-21)
(0.170158 0.00262454 1.37355e-20)
(0.167517 0.0073775 -5.62836e-21)
(0.164964 0.0116483 6.87341e-22)
(0.162555 0.0154388 0)
(0.16033 0.0187646 -6.85099e-22)
(0.158312 0.0216462 -6.54845e-22)
(0.156506 0.0241019 9.68572e-21)
(0.154933 0.0261637 -8.87399e-21)
(0.154079 0.0283475 -1.49108e-21)
(0.182516 -0.0619688 0)
(0.181848 -0.0638671 -5.62037e-23)
(0.181489 -0.065557 4.02494e-20)
(0.181335 -0.0668642 -4.10294e-20)
(0.181365 -0.067698 -3.98199e-20)
(0.181567 -0.0679819 6.21774e-20)
(0.181902 -0.0676594 -1.73406e-20)
(0.182344 -0.0666365 -2.23715e-23)
(0.182826 -0.0648377 -2.31127e-21)
(0.183274 -0.0622446 0)
(0.183609 -0.0588545 -8.10293e-21)
(0.183742 -0.0546989 1.57585e-20)
(0.183594 -0.0498469 -7.63784e-21)
(0.183098 -0.0444042 2.14038e-22)
(0.182211 -0.0385061 -2.32838e-19)
(0.180915 -0.0323078 2.32926e-19)
(0.179223 -0.0259719 -1.63933e-22)
(0.177175 -0.0196558 -4.43468e-21)
(0.174831 -0.0135007 8.42424e-21)
(0.172268 -0.00762395 -3.98468e-21)
(0.16957 -0.00211507 0)
(0.166819 0.00296496 7.52036e-22)
(0.164091 0.00758122 -7.65924e-23)
(0.161451 0.0117209 -6.03384e-21)
(0.158954 0.015389 1.46851e-20)
(0.156639 0.0186031 -9.88163e-21)
(0.15453 0.0213855 -9.11679e-21)
(0.152633 0.0237558 9.52784e-21)
(0.15097 0.0257486 -6.51972e-23)
(0.150023 0.0278742 0)
(0.179558 -0.0630661 0)
(0.178904 -0.0647371 -3.97908e-20)
(0.178595 -0.0662308 4.33403e-20)
(0.17849 -0.0673366 3.97555e-20)
(0.178562 -0.067964 -4.32863e-20)
(0.178797 -0.0680409 -2.31853e-20)
(0.179155 -0.0675129 8.25791e-22)
(0.179607 -0.0662751 2.30096e-20)
(0.18008 -0.0642808 4.83699e-21)
(0.180504 -0.0615113 0)
(0.180795 -0.0579698 0)
(0.180871 -0.0536936 -6.84195e-21)
(0.180652 -0.0487568 8.37926e-21)
(0.180076 -0.0432679 0)
(0.179103 -0.0373625 -2.46285e-19)
(0.17772 -0.0311937 2.46282e-19)
(0.175942 -0.0249203 0)
(0.17381 -0.018694 4.0867e-21)
(0.171386 -0.0126497 -4.83431e-21)
(0.168747 -0.00689859 0)
(0.165974 -0.00152394 0)
(0.16315 0.00341846 -1.48738e-21)
(0.160348 0.00789811 4.54495e-21)
(0.157634 0.0119057 -3.02871e-22)
(0.155059 0.0154489 -4.18068e-21)
(0.152666 0.0185474 -8.66998e-21)
(0.150475 0.0212245 8.98696e-21)
(0.148494 0.0235014 8.11022e-21)
(0.146749 0.0254159 -8.47988e-21)
(0.145707 0.0274673 0)
(0.176183 -0.0640306 0)
(0.175549 -0.0654761 0)
(0.175292 -0.0667766 0)
(0.175236 -0.0676819 -4.20471e-20)
(0.175353 -0.0681018 2.05699e-20)
(0.175614 -0.0679739 2.51407e-20)
(0.175997 -0.0672302 2.72587e-21)
(0.176453 -0.0657789 2.05456e-20)
(0.176914 -0.0635892 -1.14579e-21)
(0.177309 -0.0606438 -1.99191e-20)
(0.177555 -0.0569523 -1.13538e-21)
(0.177569 -0.0525584 -2.11911e-21)
(0.177278 -0.0475407 -4.70645e-21)
(0.176624 -0.0420098 3.52522e-21)
(0.175569 -0.0361013 -2.5821e-19)
(0.174104 -0.0299661 2.58217e-19)
(0.172248 -0.0237584 2.57192e-21)
(0.170042 -0.0176242 -1.84101e-21)
(0.16755 -0.0116923 9.94539e-22)
(0.164848 -0.00606733 4.17255e-22)
(0.162015 -0.000826899 -5.8963e-21)
(0.159131 0.00397818 6.40072e-22)
(0.15627 0.00832141 5.19981e-21)
(0.153494 0.0121966 -5.15152e-22)
(0.150856 0.0156138 3.58206e-21)
(0.148395 0.0185942 4.06414e-21)
(0.146133 0.0211622 -7.95219e-21)
(0.144077 0.0233403 0)
(0.142256 0.0251695 0)
(0.141124 0.0271349 0)
(0.17235 -0.0648498 -4.77336e-20)
(0.171744 -0.0660715 5.02994e-20)
(0.171542 -0.0671795 0)
(0.171539 -0.0678836 -2.36606e-20)
(0.171699 -0.0680941 2.69129e-20)
(0.17199 -0.0677585 2.27733e-20)
(0.172394 -0.066792 -2.90352e-20)
(0.172851 -0.0651293 0)
(0.173298 -0.0627443 -2.64604e-21)
(0.17366 -0.0596245 0)
(0.173856 -0.0557866 3.40388e-24)
(0.173808 -0.0512799 9.10053e-24)
(0.173445 -0.0461874 1.00458e-21)
(0.172714 -0.0406214 4.54947e-22)
(0.171581 -0.0347171 -2.68753e-19)
(0.170042 -0.0286222 2.68737e-19)
(0.168116 -0.022486 -3.16477e-22)
(0.165848 -0.0164489 -5.51006e-22)
(0.163301 -0.0106328 -4.23366e-23)
(0.160548 -0.00513627 -4.51412e-23)
(0.157669 -3.12854e-05 0)
(0.154741 0.00463601 6.6944e-22)
(0.151835 0.0088428 0)
(0.149012 0.0125857 -2.778e-21)
(0.146324 0.0158765 3.78058e-21)
(0.143807 0.0187377 2.71433e-21)
(0.141485 0.0211946 -3.10173e-21)
(0.139364 0.0232707 0)
(0.137477 0.0250098 6.9223e-21)
(0.136259 0.0268809 -7.29934e-21)
(0.168018 -0.0655076 0)
(0.167448 -0.0665065 7.01878e-23)
(0.167306 -0.0674209 5.33683e-20)
(0.16736 -0.0679208 -5.10447e-20)
(0.167562 -0.0679207 3.1266e-21)
(0.167888 -0.0673689 -6.12567e-21)
(0.168309 -0.0661763 2.98263e-21)
(0.168766 -0.0643037 0)
(0.169195 -0.0617247 0)
(0.169521 -0.0584341 0)
(0.169666 -0.0544553 1.22768e-21)
(0.169555 -0.0498435 -7.48384e-21)
(0.169121 -0.0446852 1.20701e-20)
(0.168315 -0.0390942 -5.90717e-21)
(0.16711 -0.0332041 -2.75343e-19)
(0.165503 -0.0271591 2.78421e-19)
(0.163518 -0.0211034 -3.49912e-21)
(0.1612 -0.0151706 6.54107e-21)
(0.15861 -0.00947621 -4.40364e-21)
(0.155822 -0.00411235 -4.055e-22)
(0.152912 0.000854445 -2.93967e-22)
(0.149954 0.00538248 0)
(0.147019 0.00945228 0)
(0.144163 0.0130628 -4.50293e-22)
(0.141438 0.0162274 6.91334e-22)
(0.138879 0.0189694 -2.53795e-22)
(0.136508 0.0213143 -4.42736e-21)
(0.134333 0.0232868 4.11945e-21)
(0.132388 0.0249332 1.0273e-22)
(0.131093 0.0267046 0)
(0.163139 -0.0659811 -5.2637e-20)
(0.162614 -0.066761 4.88017e-20)
(0.162539 -0.067477 2.30829e-20)
(0.162654 -0.0677671 -2.68563e-20)
(0.162901 -0.0675551 -2.88002e-20)
(0.163263 -0.0667749 2.95298e-20)
(0.163701 -0.065359 2.44904e-20)
(0.164156 -0.0632768 -2.19025e-20)
(0.164565 -0.0605068 1.26107e-20)
(0.164853 -0.057051 -1.13247e-20)
(0.164945 -0.0529396 1.09566e-20)
(0.16477 -0.0482333 -5.36544e-21)
(0.164266 -0.0430215 -3.93505e-21)
(0.16339 -0.0374186 2.31775e-22)
(0.162118 -0.0315563 -2.83063e-19)
(0.160453 -0.0255744 2.83042e-19)
(0.15842 -0.0196109 -1.46076e-22)
(0.156063 -0.0137928 -2.10687e-21)
(0.153445 -0.00822848 -1.21921e-21)
(0.150637 -0.00300371 3.03898e-21)
(0.147711 0.00182041 -1.71291e-21)
(0.14474 0.0062064 1.79729e-21)
(0.141791 0.0101378 -2.91789e-21)
(0.138918 0.0136156 2.57588e-21)
(0.13617 0.0166542 1.49434e-21)
(0.133582 0.0192775 -1.49251e-21)
(0.131174 0.0215108 -1.33281e-21)
(0.128956 0.0233796 1.51169e-21)
(0.126964 0.0249321 4.58284e-21)
(0.125598 0.0266012 -4.38458e-21)
(0.15766 -0.0662433 -3.45959e-21)
(0.157189 -0.0668077 -5.4815e-20)
(0.157189 -0.0673171 6.02982e-20)
(0.15737 -0.0673923 0)
(0.157669 -0.0669604 -3.46714e-21)
(0.158068 -0.0659462 0)
(0.158521 -0.0643085 -3.3169e-21)
(0.158974 -0.062019 2.45356e-20)
(0.15936 -0.0590632 -2.64424e-20)
(0.159608 -0.0554506 1.41599e-21)
(0.159646 -0.0512182 -2.62096e-21)
(0.159407 -0.0464315 -1.18984e-21)
(0.158836 -0.0411824 -5.42176e-22)
(0.157894 -0.0355849 -2.40576e-22)
(0.156563 -0.0297677 -2.86104e-19)
(0.154849 -0.0238656 2.86094e-19)
(0.152779 -0.0180098 1.51623e-22)
(0.150398 -0.0123198 2.50859e-22)
(0.147767 -0.00689687 -3.49618e-22)
(0.144954 -0.00182009 0)
(0.14203 0.00285477 -1.90294e-22)
(0.139063 0.0070943 -2.10412e-21)
(0.136115 0.0108848 2.40073e-21)
(0.133241 0.0142287 9.04418e-23)
(0.130485 0.0171414 0)
(0.127881 0.0196466 -1.35652e-24)
(0.12545 0.0217694 0)
(0.123201 0.0235352 8.01102e-22)
(0.121171 0.024994 -7.34538e-22)
(0.119744 0.0265604 1.75593e-22)
(0.151517 -0.066261 -5.44758e-20)
(0.151113 -0.0666065 5.72309e-20)
(0.151197 -0.0669009 9.66624e-23)
(0.151447 -0.0667578 3.22167e-20)
(0.151806 -0.0660926 -5.41516e-20)
(0.152242 -0.0648452 3.26039e-20)
(0.152712 -0.0629875 3.41434e-21)
(0.15316 -0.0604952 3.81591e-23)
(0.153522 -0.0573617 0)
(0.153728 -0.0536044 -1.4623e-21)
(0.153711 -0.0492667 -7.53926e-21)
(0.15341 -0.0444182 1.15874e-20)
(0.152775 -0.0391524 5.3939e-22)
(0.151773 -0.033582 -1.53184e-21)
(0.150392 -0.0278319 -2.84004e-19)
(0.148639 -0.0220307 2.87018e-19)
(0.146545 -0.016302 -1.36351e-21)
(0.144156 -0.0107575 -2.02048e-22)
(0.141528 -0.00549054 2.65659e-21)
(0.138728 -0.000573608 -2.26867e-21)
(0.135823 0.00394293 1.96516e-22)
(0.132877 0.00802954 0)
(0.129948 0.011675 1.69191e-22)
(0.127089 0.014883 -9.30978e-23)
(0.124341 0.0176692 -3.34903e-22)
(0.121737 0.0200569 1.18068e-21)
(0.119295 0.0220703 -5.22018e-22)
(0.117025 0.0237348 1.57796e-22)
(0.114968 0.0251012 2.5802e-22)
(0.113489 0.0265659 -4.40942e-22)
(0.144635 -0.0659863 0)
(0.144314 -0.066107 0)
(0.14449 -0.0661781 -3.38656e-20)
(0.144819 -0.0658088 2.7369e-20)
(0.145241 -0.0649034 0)
(0.145717 -0.0634253 -3.66744e-21)
(0.146203 -0.0613508 -3.61629e-21)
(0.146646 -0.0586631 -3.40994e-21)
(0.146981 -0.0553641 0)
(0.147144 -0.0514788 0)
(0.147072 -0.0470565 -1.38732e-21)
(0.146709 -0.0421701 5.2946e-21)
(0.146013 -0.0369138 -5.81932e-21)
(0.144958 -0.031398 -2.41642e-22)
(0.143535 -0.0257424 -2.81615e-19)
(0.141758 -0.0200683 2.81681e-19)
(0.139655 -0.0144911 1.35375e-22)
(0.137273 -0.00911374 -9.35017e-22)
(0.134667 -0.00402147 1.30541e-21)
(0.131899 0.000720212 0)
(0.129032 0.00506631 0)
(0.126126 0.008991 0)
(0.123236 0.0124852 0)
(0.12041 0.0155537 -2.51853e-22)
(0.117686 0.0182117 -1.2685e-22)
(0.115096 0.0204819 0)
(0.112658 0.0223872 -2.5152e-21)
(0.110381 0.0239523 2.04529e-21)
(0.108307 0.0252283 0)
(0.106786 0.0265934 0)
(0.136923 -0.0653547 -3.9893e-21)
(0.136702 -0.0652431 0)
(0.136981 -0.0650865 0)
(0.137401 -0.0644766 0)
(0.137889 -0.0633315 0)
(0.138405 -0.0616256 0)
(0.138907 -0.059341 3.69338e-21)
(0.139342 -0.0564701 1.79149e-21)
(0.139648 -0.0530233 -1.27857e-20)
(0.139765 -0.0490329 2.80829e-21)
(0.139637 -0.0445533 2.40178e-20)
(0.139215 -0.03966 -1.61319e-20)
(0.138463 -0.0344466 7.02196e-22)
(0.137363 -0.0290196 4.0992e-21)
(0.13591 -0.0234925 -2.72608e-19)
(0.13412 -0.0179783 2.72565e-19)
(0.132026 -0.012583 1.57194e-21)
(0.12967 -0.00739994 -5.56738e-22)
(0.127106 -0.00250594 -2.18844e-21)
(0.124391 0.00204071 1.45495e-21)
(0.121584 0.00620041 -6.05641e-22)
(0.118741 0.00995092 3.0418e-22)
(0.11591 0.0132851 1.89353e-22)
(0.113136 0.0162081 2.5722e-22)
(0.110456 0.0187349 0)
(0.107897 0.0208866 0)
(0.105477 0.0226844 0)
(0.103206 0.024152 0)
(0.101127 0.0253398 0)
(0.0995733 0.0266084 -3.53109e-22)
(0.128269 -0.0642795 8.21754e-21)
(0.128169 -0.0639292 -3.27977e-20)
(0.128564 -0.0635325 3.40767e-20)
(0.129081 -0.0626761 0)
(0.129637 -0.0612947 -3.20496e-20)
(0.130194 -0.0593671 3.70396e-20)
(0.130711 -0.0568847 -3.17215e-20)
(0.131133 -0.0538494 2.68381e-20)
(0.131406 -0.0502802 0)
(0.131475 -0.0462159 1.04111e-20)
(0.13129 -0.0417154 -2.88337e-21)
(0.130812 -0.0368552 -1.56203e-20)
(0.13001 -0.0317271 5.31745e-21)
(0.128874 -0.0264323 1.64951e-21)
(0.127404 -0.0210765 -2.59392e-19)
(0.12562 -0.0157629 2.56651e-19)
(0.123553 -0.0105873 9.55224e-22)
(0.121245 -0.00563263 5.67555e-22)
(0.118747 -0.000966764 -1.11104e-21)
(0.11611 0.00335946 9.67096e-22)
(0.113388 0.00731188 -5.05145e-22)
(0.11063 0.0108717 -2.48746e-22)
(0.107882 0.0140333 -4.88036e-21)
(0.105183 0.0168022 3.90881e-21)
(0.102567 0.0191922 -4.65103e-21)
(0.100059 0.0212226 5.28262e-21)
(0.0976747 0.0229125 0)
(0.0954255 0.0242839 -5.59032e-21)
(0.0933541 0.0253858 5.41244e-21)
(0.0917783 0.0265608 9.53177e-22)
(0.118532 -0.0626374 2.62031e-20)
(0.118574 -0.062041 -3.4112e-20)
(0.119099 -0.0613926 -3.00845e-20)
(0.119716 -0.0602929 3.57511e-20)
(0.120342 -0.0586811 3.75837e-20)
(0.120937 -0.0565446 -7.46559e-20)
(0.121462 -0.0538852 5.23414e-20)
(0.121867 -0.0507142 -1.38605e-20)
(0.122102 -0.0470588 0)
(0.12212 -0.0429637 -1.21422e-20)
(0.121878 -0.0384907 1.09207e-20)
(0.121346 -0.0337162 -6.26445e-22)
(0.120502 -0.0287279 -1.94893e-21)
(0.119342 -0.0236205 2.74421e-21)
(0.117872 -0.0184898 -2.36465e-19)
(0.116113 -0.0134283 2.35265e-19)
(0.114097 -0.00851987 8.67727e-22)
(0.111864 -0.00383678 -4.61431e-22)
(0.109458 0.000562925 -3.04235e-23)
(0.106928 0.004636 -1.67506e-21)
(0.104319 0.00835369 1.69215e-21)
(0.101677 0.0117005 6.39984e-22)
(0.0990391 0.0146721 3.58338e-21)
(0.0964417 0.0172738 -9.51332e-21)
(0.0939143 0.0195179 1.27665e-20)
(0.0914799 0.0214215 -6.29184e-21)
(0.089152 0.0230011 -8.02077e-21)
(0.0869423 0.0242762 7.76407e-21)
(0.0848941 0.0252938 6.48774e-21)
(0.0833088 0.0263776 -8.09112e-21)
(0.107529 -0.0602469 4.09454e-20)
(0.107735 -0.0593941 4.81153e-21)
(0.108394 -0.0584977 -5.7308e-21)
(0.109112 -0.0571614 -3.7208e-20)
(0.109804 -0.055334 -4.35428e-21)
(0.110431 -0.0530131 6.40453e-21)
(0.110955 -0.0502109 5.73792e-23)
(0.111335 -0.0469481 0)
(0.111524 -0.043259 0)
(0.111486 -0.0391931 -1.21846e-20)
(0.111188 -0.0348134 1.38699e-20)
(0.110607 -0.030194 6.30912e-22)
(0.109732 -0.025417 0)
(0.108564 -0.020568 5.21067e-22)
(0.107114 -0.0157317 -2.06237e-19)
(0.105406 -0.0109878 2.05164e-19)
(0.10347 -0.00640749 3.45444e-22)
(0.101343 -0.0020511 0)
(0.0990648 0.00203339 3.06402e-23)
(0.096676 0.00581059 -2.34981e-21)
(0.0942163 0.00925716 2.19251e-21)
(0.0917231 0.0123606 -3.89839e-22)
(0.0892299 0.0151177 0)
(0.0867664 0.0175329 1.68781e-22)
(0.0843584 0.0196169 1.78963e-21)
(0.0820259 0.0213838 -1.11965e-21)
(0.0797805 0.022847 1.05166e-20)
(0.0776335 0.0240231 -1.33505e-23)
(0.0756284 0.0249561 4.35152e-22)
(0.0740493 0.0259495 -8.15987e-21)
(0.0950085 -0.0568266 -3.82636e-20)
(0.095393 -0.0557265 3.27421e-20)
(0.0961852 -0.0545912 0)
(0.0969966 -0.053038 -3.40901e-20)
(0.0977422 -0.0510266 4.01013e-20)
(0.0983857 -0.0485656 -1.90962e-20)
(0.0988957 -0.045677 3.13947e-20)
(0.0992361 -0.0423899 -1.44758e-20)
(0.0993718 -0.0387446 0)
(0.0992738 -0.0347932 0)
(0.0989206 -0.0305978 5.93507e-21)
(0.0982997 -0.026228 -5.90727e-21)
(0.0974088 -0.0217577 0)
(0.0962549 -0.017261 1.96427e-22)
(0.0948544 -0.0128095 -1.65151e-19)
(0.0932307 -0.00846853 1.65116e-19)
(0.0914127 -0.00429541 -3.68795e-23)
(0.0894327 -0.00033771 0)
(0.0873243 0.00336713 1.20781e-21)
(0.0851209 0.00679173 -1.10978e-21)
(0.0828546 0.00991803 0)
(0.080555 0.0127363 0)
(0.0782492 0.0152439 6.76089e-21)
(0.0759612 0.0174443 -1.27481e-20)
(0.0737122 0.0193456 5.40884e-21)
(0.0715189 0.0209587 -1.23797e-20)
(0.0693908 0.0222936 1.38083e-20)
(0.0673386 0.0233633 0)
(0.0654045 0.0242076 -1.29663e-20)
(0.063854 0.0251074 1.02457e-20)
(0.0806107 -0.0519295 -3.75322e-20)
(0.0811715 -0.0506103 3.65072e-20)
(0.0820795 -0.0492682 -3.86973e-20)
(0.0829605 -0.0475457 6.17105e-23)
(0.0837343 -0.0454147 4.20742e-22)
(0.0843698 -0.0428935 5.70111e-20)
(0.0848434 -0.040013 -1.77946e-20)
(0.085128 -0.0368088 -1.95181e-21)
(0.0851992 -0.0333247 1.34485e-20)
(0.0850393 -0.0296129 -2.55811e-20)
(0.084638 -0.0257317 1.20399e-20)
(0.0839934 -0.0217433 4.63933e-21)
(0.0831115 -0.0177102 -5.64603e-21)
(0.0820054 -0.013693 2.06984e-21)
(0.0806943 -0.00974759 -1.13251e-19)
(0.0792014 -0.00592362 1.12606e-19)
(0.0775525 -0.00226317 -2.92712e-22)
(0.0757742 0.00119948 1.78385e-21)
(0.0738927 0.00443775 -1.24905e-21)
(0.0719332 0.00743227 -5.2782e-21)