/*--------------------------------*- C++ -*----------------------------------*\
  =========                 |
  \\      /  F ield         | OpenFOAM: The Open Source CFD Toolbox
   \\    /   O peration     | Website:  https://openfoam.org
    \\  /    A nd           | Version:  12
     \\/     M anipulation  |
\*---------------------------------------------------------------------------*/
FoamFile
{
    format      ascii;
    class       volVectorField;
    location    "360";
    object      UMean;
}
// * * * * * * * * * * * * * * * * * * * * * * * * * * * * * * * * * * * * * //

dimensions      [0 1 -1 0 0 0 0];

internalField   nonuniform List<vector> 
6750
(
(0.20007 -0.00308935 0)
(0.20036 -0.00941455 0)
(0.200647 -0.0152179 0)
(0.200895 -0.0205778 0)
(0.200784 -0.0255913 0)
(0.200037 -0.0034697 0)
(0.200281 -0.0100165 0)
(0.200486 -0.0157526 0)
(0.200566 -0.0208316 0)
(0.200454 -0.0253433 0)
(0.200026 -0.00363372 0)
(0.200128 -0.0102466 0)
(0.200146 -0.0158556 0)
(0.200026 -0.020653 0)
(0.199786 -0.0247407 0)
(0.20001 -0.00366756 0)
(0.199959 -0.010198 0)
(0.199783 -0.0156164 0)
(0.199481 -0.020152 0)
(0.199109 -0.0239434 0)
(0.199995 -0.00360008 0)
(0.199803 -0.00991951 0)
(0.199442 -0.0150913 0)
(0.198963 -0.0193715 0)
(0.198444 -0.0229235 0)
(0.199983 -0.00344873 0)
(0.19966 -0.00944553 0)
(0.199123 -0.0143138 0)
(0.198461 -0.018321 0)
(0.197777 -0.0216392 0)
(0.199973 -0.00322788 0)
(0.199527 -0.00880352 0)
(0.198815 -0.0133091 0)
(0.197967 -0.0170098 0)
(0.197105 -0.0200754 0)
(0.199964 -0.00294861 0)
(0.1994 -0.00801638 0)
(0.198519 -0.0121011 0)
(0.197485 -0.015455 0)
(0.196436 -0.0182377 0)
(0.199955 -0.00262059 0)
(0.199282 -0.00710677 0)
(0.19824 -0.0107177 0)
(0.197027 -0.0136845 0)
(0.195794 -0.0161513 0)
(0.199948 -0.00225364 0)
(0.199175 -0.00609945 0)
(0.197987 -0.00919307 0)
(0.196609 -0.0117375 0)
(0.195205 -0.0138578 0)
(0.199941 -0.00185821 0)
(0.199083 -0.00502135 0)
(0.197768 -0.00756573 0)
(0.196247 -0.00966073 0)
(0.194693 -0.01141 0)
(0.199937 -0.00144503 0)
(0.199009 -0.00390028 0)
(0.197592 -0.00587637 0)
(0.195954 -0.00750484 0)
(0.194277 -0.00886662 0)
(0.199933 -0.00102451 0)
(0.198956 -0.00276329 0)
(0.197461 -0.00416487 0)
(0.195738 -0.00531992 0)
(0.193968 -0.0062867 0)
(0.199929 -0.000605956 0)
(0.198924 -0.00163522 0)
(0.197378 -0.00246739 0)
(0.195599 -0.0031517 0)
(0.193769 -0.00372466 0)
(0.199919 -0.000201106 0)
(0.198918 -0.000535722 0)
(0.197342 -0.000812696 0)
(0.195535 -0.00103836 0)
(0.193675 -0.0012271 0)
(0.199919 0.000201042 0)
(0.198918 0.000535653 0)
(0.197342 0.000812664 0)
(0.195535 0.00103838 0)
(0.193675 0.00122718 0)
(0.199929 0.000605892 0)
(0.198924 0.00163515 0)
(0.197378 0.00246736 0)
(0.195599 0.00315173 0)
(0.193769 0.00372474 0)
(0.199933 0.00102445 0)
(0.198956 0.00276322 0)
(0.197461 0.00416484 0)
(0.195738 0.00531995 0)
(0.193968 0.00628678 0)
(0.199937 0.00144497 0)
(0.199009 0.00390022 0)
(0.197592 0.00587635 0)
(0.195954 0.00750487 0)
(0.194277 0.0088667 0)
(0.199941 0.00185814 0)
(0.199083 0.00502128 0)
(0.197768 0.0075657 0)
(0.196247 0.00966077 0)
(0.194693 0.01141 0)
(0.199948 0.00225358 0)
(0.199175 0.00609938 0)
(0.197987 0.00919305 0)
(0.196609 0.0117375 0)
(0.195205 0.0138579 0)
(0.199955 0.00262053 0)
(0.199282 0.00710671 0)
(0.19824 0.0107177 0)
(0.197027 0.0136846 0)
(0.195794 0.0161514 0)
(0.199964 0.00294856 0)
(0.1994 0.00801633 0)
(0.198519 0.012101 0)
(0.197485 0.015455 0)
(0.196436 0.0182378 0)
(0.199973 0.00322784 0)
(0.199527 0.00880348 0)
(0.198815 0.0133091 0)
(0.197967 0.0170099 0)
(0.197105 0.0200755 0)
(0.199983 0.00344869 0)
(0.19966 0.0094455 0)
(0.199123 0.0143138 0)
(0.198461 0.018321 0)
(0.197777 0.0216393 0)
(0.199995 0.00360005 0)
(0.199803 0.00991948 0)
(0.199442 0.0150913 0)
(0.198963 0.0193716 0)
(0.198444 0.0229236 0)
(0.20001 0.00366754 0)
(0.199959 0.010198 0)
(0.199783 0.0156164 0)
(0.199481 0.020152 0)
(0.199109 0.0239435 0)
(0.200026 0.0036337 0)
(0.200128 0.0102466 0)
(0.200146 0.0158556 0)
(0.200026 0.020653 0)
(0.199786 0.0247407 0)
(0.200037 0.00346969 0)
(0.200281 0.0100165 0)
(0.200486 0.0157526 0)
(0.200566 0.0208316 0)
(0.200454 0.0253433 0)
(0.20007 0.00308934 0)
(0.20036 0.00941455 0)
(0.200647 0.0152179 0)
(0.200895 0.0205778 0)
(0.200784 0.0255913 0)
(0.198793 -0.0367844 0)
(0.1972 -0.0420473 0)
(0.195863 -0.0468417 0)
(0.194962 -0.0511222 1.38572e-22)
(0.194355 -0.0547856 0)
(0.193983 -0.0577762 0)
(0.193838 -0.0600323 -9.71955e-21)
(0.193903 -0.0614632 9.8133e-21)
(0.194159 -0.0619586 8.24522e-23)
(0.194537 -0.0614618 5.24562e-21)
(0.19501 -0.059839 3.90248e-23)
(0.195499 -0.0569632 1.61088e-23)
(0.195925 -0.0528919 -2.73101e-21)
(0.196206 -0.0476932 -2.72426e-21)
(0.196268 -0.0415086 -6.36093e-21)
(0.196057 -0.0345454 6.36321e-21)
(0.195544 -0.0270601 -2.52919e-21)
(0.19473 -0.0193308 -2.30495e-21)
(0.193645 -0.0116352 2.20699e-22)
(0.192338 -0.00422468 2.57093e-22)
(0.190866 0.00269608 4.34024e-21)
(0.189304 0.00901223 -6.24702e-23)
(0.187736 0.0146057 6.9065e-21)
(0.186223 0.0194255 -6.84542e-21)
(0.184814 0.0234657 0)
(0.183552 0.0267511 0)
(0.182466 0.0293263 -7.65258e-23)
(0.181581 0.031247 0)
(0.180923 0.0325753 0)
(0.180473 0.0333446 0)
(0.197974 -0.0399885 0)
(0.196539 -0.0451569 0)
(0.195476 -0.0495356 0)
(0.194754 -0.0533298 -1.31001e-22)
(0.194259 -0.0565283 0)
(0.193977 -0.0590945 0)
(0.193906 -0.0609611 1.0219e-20)
(0.194033 -0.0620352 -1.04779e-20)
(0.19433 -0.0622153 -7.76194e-23)
(0.194734 -0.0614597 0)
(0.195215 -0.0596095 0)
(0.195688 -0.0565985 -5.01203e-21)
(0.196087 -0.0524789 5.02781e-21)
(0.196331 -0.0473209 0)
(0.196356 -0.0412593 -1.67533e-20)
(0.196113 -0.0344859 1.67543e-20)
(0.195578 -0.0272327 0)
(0.194755 -0.0197526 4.48635e-21)
(0.193673 -0.0122948 -4.51019e-21)
(0.192376 -0.00508676 0)
(0.190928 0.00168523 0)
(0.189392 0.00790075 5.86268e-23)
(0.187835 0.0134553 -6.78304e-21)
(0.186323 0.018296 6.83212e-21)
(0.184904 0.0224086 0)
(0.183616 0.0258088 0)
(0.182489 0.028532 7.20897e-23)
(0.181542 0.0306257 0)
(0.180805 0.0321502 0)
(0.180283 0.0331731 0)
(0.1972 -0.0424605 0)
(0.196068 -0.0471398 0)
(0.195178 -0.0511205 0)
(0.194543 -0.0545995 1.08392e-20)
(0.19412 -0.057533 -1.09591e-20)
(0.193909 -0.0598616 1.14472e-20)
(0.193905 -0.0615065 -1.15548e-20)
(0.194092 -0.0623734 1.74322e-22)
(0.194437 -0.062369 0)
(0.19488 -0.061454 0)
(0.195384 -0.0594579 -1.73876e-22)
(0.195863 -0.0563572 0)
(0.19625 -0.0521949 0)
(0.196467 -0.0470437 -3.94943e-23)
(0.196451 -0.0410366 -2.71195e-20)
(0.196157 -0.0343581 2.71202e-20)
(0.195566 -0.0272296 3.48548e-23)
(0.194685 -0.0198892 0)
(0.193546 -0.0125715 0)
(0.192197 -0.00548847 1.19753e-22)
(0.1907 0.00118493 0)
(0.189122 0.00731571 0)
(0.187527 0.0128207 -1.11182e-22)
(0.185977 0.0176473 -6.02546e-21)
(0.18452 0.0217785 5.96936e-21)
(0.183191 0.0252254 -5.1278e-21)
(0.182018 0.0280182 5.05899e-21)
(0.181016 0.030198 0)
(0.180218 0.0318252 0)
(0.17969 0.0330274 0)
(0.196513 -0.0446787 0)
(0.195593 -0.0489561 -2.41723e-20)
(0.194802 -0.0526196 1.21482e-20)
(0.194236 -0.0558235 2.54203e-20)
(0.193883 -0.0585058 -2.5731e-20)
(0.193742 -0.0605987 1.27956e-20)
(0.193804 -0.0620207 0)
(0.194054 -0.0626793 4.01023e-22)
(0.194446 -0.0624966 0)
(0.194938 -0.0614143 0)
(0.19547 -0.0592771 6.17688e-21)
(0.195963 -0.0560891 -5.83519e-21)
(0.196345 -0.0518852 0)
(0.196537 -0.0467412 4.14638e-23)
(0.196476 -0.0407883 -3.69314e-20)
(0.196119 -0.0342045 3.6934e-20)
(0.19545 -0.0272005 -3.65943e-23)
(0.194482 -0.0200016 0)
(0.19325 -0.0128281 -3.92113e-21)
(0.191808 -0.00587897 3.66562e-21)
(0.19022 0.000681059 1.04227e-22)
(0.188557 0.0067275 0)
(0.186884 0.0121774 -1.79747e-22)
(0.185262 0.0169819 0)
(0.183738 0.0211235 5.05809e-21)
(0.182349 0.0246105 -9.44927e-21)
(0.181117 0.0274686 8.55379e-21)
(0.180056 0.0297325 3.40411e-21)
(0.179197 0.0314587 -7.40083e-21)
(0.178684 0.0328391 0)
(0.195804 -0.0467892 0)
(0.195013 -0.0507199 2.80831e-20)
(0.194302 -0.0540895 -2.7583e-20)
(0.193808 -0.057024 0)
(0.193526 -0.0594563 0)
(0.193454 -0.0613145 4.52459e-22)
(0.193581 -0.0625151 0)
(0.193893 -0.0629668 -4.20096e-22)
(0.194335 -0.0626085 6.57527e-21)
(0.194875 -0.061353 -6.68151e-21)
(0.195435 -0.059078 -6.38192e-21)
(0.195941 -0.0557984 6.21546e-21)
(0.196316 -0.0515473 1.79545e-22)
(0.196479 -0.0464033 -8.417e-23)
(0.196366 -0.0404962 -4.61908e-20)
(0.195937 -0.0339985 4.61945e-20)
(0.195179 -0.027112 6.70745e-23)
(0.194107 -0.0200499 -1.23464e-22)
(0.192762 -0.0130199 3.69269e-21)
(0.191204 -0.0062083 -3.55751e-21)
(0.189501 0.000230445 -3.2753e-21)
(0.187727 0.00617996 3.1435e-21)
(0.185949 0.0115611 1.88373e-22)
(0.18423 0.0163279 0)
(0.182617 0.0204637 -1.36435e-22)
(0.181148 0.0239751 0)
(0.179844 0.0268844 0)
(0.178715 0.0292208 -6.91964e-21)
(0.177789 0.0310352 6.63231e-21)
(0.177286 0.0325838 0)
(0.195001 -0.0487962 2.98823e-20)
(0.194293 -0.0523986 -4.69169e-20)
(0.193658 -0.0554887 1.54183e-20)
(0.193236 -0.0581664 0)
(0.193024 -0.0603598 1.5465e-20)
(0.193018 -0.0619928 -1.513e-20)
(0.19321 -0.0629804 1.46529e-20)
(0.193582 -0.0632336 -1.51588e-20)
(0.194074 -0.0627025 0)
(0.194656 -0.0612732 -4.45139e-22)
(0.195241 -0.0588631 6.56133e-21)
(0.195757 -0.0554879 -3.49688e-21)
(0.196119 -0.0511822 -5.85359e-22)
(0.196246 -0.0460274 -2.81892e-21)
(0.196076 -0.0401528 -5.48774e-20)
(0.195568 -0.0337269 5.48749e-20)
(0.194712 -0.0269439 -2.15394e-21)
(0.193529 -0.0200073 4.26894e-22)
(0.192062 -0.0131131 -1.56714e-21)
(0.190376 -0.00643659 3.44141e-21)
(0.188545 -0.000122128 1.73355e-22)
(0.186644 0.0057215 0)
(0.184746 0.0110206 -4.80227e-21)
(0.182913 0.0157331 4.88486e-21)
(0.181195 0.0198436 -4.12196e-21)
(0.179631 0.0233586 3.98122e-21)
(0.178241 0.0262983 1.95652e-22)
(0.177033 0.0286873 3.07768e-21)
(0.176032 0.030571 -9.31649e-21)
(0.175523 0.0322649 6.69876e-21)
(0.194063 -0.0506874 -1.60761e-20)
(0.19341 -0.0539777 1.81566e-20)
(0.192846 -0.0568075 1.80741e-20)
(0.192494 -0.0592449 -1.83237e-20)
(0.19235 -0.0612125 1.69427e-20)
(0.192409 -0.0626302 -1.81929e-20)
(0.192663 -0.0634132 -5.51855e-22)
(0.193091 -0.0634768 0)
(0.193631 -0.0627727 7.62882e-21)
(0.194249 -0.0611711 4.57018e-23)
(0.194854 -0.0586269 -4.02677e-24)
(0.195372 -0.0551519 -7.18614e-21)
(0.195714 -0.0507839 -2.80379e-21)
(0.1958 -0.0456076 4.3825e-21)
(0.195566 -0.0397522 -6.41937e-20)
(0.194974 -0.0333835 6.16901e-20)
(0.194018 -0.0266895 3.13815e-21)
(0.19272 -0.0198655 -2.24679e-21)
(0.191129 -0.0130978 -3.205e-21)
(0.189312 -0.00655157 1.56248e-22)
(0.187347 -0.000361826 1.0372e-22)
(0.185314 0.00537021 2.53259e-21)
(0.183287 0.0105768 0)
(0.181332 0.0152199 7.95054e-23)
(0.179499 0.0192869 -3.14578e-21)
(0.177828 0.0227847 3.34989e-21)
(0.176341 0.0257326 -2.83117e-21)
(0.175045 0.0281525 2.60396e-21)
(0.173959 0.0300844 2.79027e-21)
(0.173424 0.0318949 -3.15036e-21)
(0.192955 -0.0524618 0)
(0.192339 -0.0554605 1.7381e-20)
(0.191843 -0.0580508 -2.11519e-20)
(0.191558 -0.0602634 1.9758e-20)
(0.191478 -0.0620162 -1.88745e-20)
(0.1916 -0.0632273 1.70175e-20)
(0.191916 -0.0638122 -1.72455e-20)
(0.192391 -0.0636938 -1.10913e-21)
(0.192978 -0.0628109 -5.33004e-22)
(0.193624 -0.0610401 -5.08291e-22)
(0.194243 -0.0583612 -4.72513e-22)
(0.194755 -0.0547815 2.20887e-22)
(0.195069 -0.0503438 -3.29921e-21)
(0.195106 -0.0451358 1.70686e-21)
(0.194804 -0.0392878 -6.86759e-20)
(0.194126 -0.0329632 7.11781e-20)
(0.193068 -0.0263453 8.33791e-22)
(0.191656 -0.0196222 -1.70651e-21)
(0.189941 -0.0129718 9.11765e-23)
(0.187995 -0.00655029 3.38057e-22)
(0.185898 -0.000484093 1.31718e-22)
(0.183732 0.00513294 1.12114e-22)
(0.181576 0.010239 1.91952e-22)
(0.179494 0.0148006 -3.20341e-21)
(0.177541 0.018808 3.08727e-21)
(0.175758 0.0222698 -2.38492e-21)
(0.174167 0.0252051 2.187e-21)
(0.172773 0.0276344 -1.74894e-21)
(0.171597 0.0295938 2.10656e-21)
(0.171017 0.0314901 0)
(0.191644 -0.0541243 0)
(0.191056 -0.0568526 1.3008e-21)
(0.190622 -0.059222 -1.77637e-20)
(0.190401 -0.0612232 3.94596e-22)
(0.190385 -0.0627707 2.05558e-20)
(0.190568 -0.0637818 1.22965e-21)
(0.190941 -0.0641721 1.23196e-21)
(0.191458 -0.0638768 -7.9642e-21)
(0.192085 -0.06281 9.85612e-21)
(0.192751 -0.0608737 -7.92206e-24)
(0.193376 -0.0580565 -3.84813e-21)
(0.193873 -0.054367 3.87125e-21)
(0.194153 -0.0498524 -1.3834e-21)
(0.194136 -0.044604 1.6001e-21)
(0.193761 -0.0387531 -7.65463e-20)
(0.192995 -0.0324615 7.65422e-20)
(0.191835 -0.0259085 9.24027e-22)
(0.190311 -0.019276 -1.03305e-21)
(0.188477 -0.0127344 1.21263e-21)
(0.186407 -0.00643179 -1.59652e-21)
(0.184183 -0.000486863 -3.04118e-23)
(0.18189 0.00501358 1.47314e-21)
(0.179607 0.0100135 -1.69006e-21)
(0.177401 0.0144841 -1.10698e-22)
(0.175329 0.0184188 -1.51187e-22)
(0.173431 0.0218282 1.5792e-21)
(0.171731 0.0247322 -1.98025e-22)
(0.170236 0.0271505 -1.48925e-21)
(0.168963 0.0291176 0)
(0.168321 0.0310692 0)
(0.190098 -0.0556804 0)
(0.189532 -0.0581582 -2.33841e-20)
(0.18916 -0.0603223 3.93821e-22)
(0.189 -0.062123 4.98331e-22)
(0.189044 -0.0634726 4.25626e-20)
(0.189284 -0.0642888 -2.19804e-20)
(0.189709 -0.064489 -1.2875e-21)
(0.190266 -0.0640154 0)
(0.190924 -0.062762 8.72575e-21)
(0.191604 -0.0606607 -8.8737e-21)
(0.192225 -0.0577019 4.03884e-21)
(0.1927 -0.0538976 -3.95186e-22)
(0.192938 -0.0493 -3.68688e-21)
(0.192861 -0.0440039 9.4969e-23)
(0.19241 -0.0381417 -8.21392e-20)
(0.191555 -0.031874 8.21712e-20)
(0.190296 -0.0253767 -5.6907e-23)
(0.188664 -0.0188261 -1.42093e-21)
(0.186717 -0.0123859 2.78656e-22)
(0.18453 -0.00619673 1.37773e-21)
(0.182187 -0.000370194 -1.48721e-21)
(0.179775 0.00501347 1.32896e-21)
(0.177372 0.00990379 0)
(0.175048 0.0142763 1.15676e-22)
(0.172859 0.0181279 -8.79443e-22)
(0.170849 0.0214714 1.5383e-21)
(0.169041 0.0243278 -1.77918e-22)
(0.167442 0.0267172 4.4656e-23)
(0.166071 0.0286735 -4.47065e-22)
(0.165354 0.0306516 0)
(0.188288 -0.0571353 -3.09971e-21)
(0.187741 -0.0593798 0)
(0.187427 -0.0613511 -1.48136e-21)
(0.187328 -0.0629599 2.2182e-20)
(0.187429 -0.0641171 -2.41523e-20)
(0.187724 -0.0647417 2.28003e-20)
(0.188193 -0.0647555 -2.29701e-20)
(0.188787 -0.0640976 -1.04501e-20)
(0.189468 -0.0626563 2.18495e-20)
(0.190153 -0.0603893 -1.81839e-22)
(0.190763 -0.0572856 -8.75612e-21)
(0.191208 -0.0533622 3.80694e-21)
(0.191398 -0.0486767 -2.14532e-21)
(0.191256 -0.043327 -2.51308e-21)
(0.190727 -0.0374472 -8.60682e-20)
(0.189782 -0.0311967 8.72592e-20)
(0.188427 -0.0247481 -1.25849e-21)
(0.186693 -0.0182727 -4.51218e-22)
(0.184641 -0.0119277 1.25443e-21)
(0.182346 -0.00584724 -1.53582e-21)
(0.179894 -0.000136118 3.8779e-22)
(0.177371 0.00513145 1.32675e-21)
(0.174858 0.00991017 -5.24377e-22)
(0.172424 0.0141798 -9.76537e-23)
(0.170126 0.0179405 9.632e-23)
(0.168008 0.0212074 3.21513e-22)
(0.166095 0.0240028 -4.49091e-22)
(0.164394 0.0263476 7.22719e-23)
(0.162924 0.0282769 0)
(0.162122 0.0302556 1.07896e-22)
(0.186181 -0.0584928 3.22375e-21)
(0.185654 -0.0605182 -2.74452e-20)
(0.185397 -0.062306 2.62925e-20)
(0.185356 -0.063729 1.59378e-21)
(0.185513 -0.0646971 1.57308e-21)
(0.18586 -0.0651307 0)
(0.186363 -0.0649607 -1.51338e-21)
(0.186992 -0.0641104 -1.2608e-20)
(0.187687 -0.0624819 2.11679e-20)
(0.188371 -0.0600467 -1.12573e-20)
(0.188963 -0.0567947 -5.82835e-22)
(0.18937 -0.0527489 3.9409e-21)
(0.189505 -0.0479718 -3.96208e-21)
(0.189295 -0.0425649 -9.78538e-23)
(0.188686 -0.0366634 -9.02768e-20)
(0.187654 -0.0304257 9.02436e-20)
(0.186206 -0.0240212 4.97279e-23)
(0.184376 -0.0176162 -1.07774e-21)
(0.182226 -0.0113621 1.07209e-21)
(0.179833 -0.00538653 8.60944e-23)
(0.177283 0.000211838 -2.93345e-22)
(0.174662 0.0053644 3.23024e-22)
(0.172049 0.0100307 -2.14808e-23)
(0.169515 0.0141944 -9.79619e-23)
(0.167118 0.0178586 0)
(0.1649 0.0210408 5.72014e-23)
(0.162887 0.0237647 6.73282e-23)
(0.161087 0.0260523 -1.53222e-21)
(0.159522 0.0279405 1.44812e-21)
(0.15863 0.0298977 -1.12253e-22)
(0.183745 -0.0597545 0)
(0.183238 -0.0615716 -6.36219e-23)
(0.183039 -0.0631819 2.77441e-20)
(0.183055 -0.0644225 -2.82824e-20)
(0.183265 -0.0652029 -2.68916e-20)
(0.183659 -0.0654455 4.17436e-20)
(0.184196 -0.0650895 -1.15434e-20)
(0.184851 -0.0640404 -2.9254e-23)
(0.185554 -0.0622247 -1.46014e-21)
(0.18623 -0.0596184 0)
(0.186795 -0.0562156 -4.60976e-21)
(0.187158 -0.0520451 8.71448e-21)
(0.187234 -0.0471746 -4.09321e-21)
(0.186952 -0.0417088 1.02394e-22)
(0.186263 -0.0357838 -9.25693e-20)
(0.185145 -0.0295571 9.26017e-20)
(0.183608 -0.0231945 -5.2034e-23)
(0.18169 -0.0168575 -8.68122e-22)
(0.179452 -0.0106916 1.3366e-21)
(0.176972 -0.00481854 -4.69759e-22)
(0.174335 0.000669043 0)
(0.171627 0.00570772 -1.0484e-22)
(0.168927 0.0102614 -8.25417e-23)
(0.166305 0.0143174 1.33716e-21)
(0.163818 0.0178815 -3.76307e-21)
(0.161509 0.0209734 2.70864e-21)
(0.159404 0.0236178 3.02475e-21)
(0.157512 0.0258382 -3.11937e-21)
(0.155856 0.0276738 -7.38992e-23)
(0.154873 0.0295911 0)
(0.180944 -0.0609195 0)
(0.180461 -0.0625349 -2.79741e-20)
(0.18032 -0.0639706 3.0463e-20)
(0.180392 -0.0650299 2.74802e-20)
(0.180654 -0.0656222 -2.99347e-20)
(0.181089 -0.0656738 -1.55865e-20)
(0.18166 -0.0651245 8.22125e-22)
(0.182334 -0.0638723 1.51522e-20)
(0.183038 -0.0618682 3.06746e-21)
(0.183699 -0.0590885 0)
(0.18423 -0.0555333 0)
(0.184543 -0.0512376 -3.63089e-21)
(0.184556 -0.0462737 4.45855e-21)
(0.1842 -0.0407496 0)
(0.183431 -0.0348021 -9.34711e-20)
(0.18223 -0.0285871 9.34681e-20)
(0.180611 -0.0222667 0)
(0.178612 -0.0159976 5.8248e-22)
(0.176295 -0.00991943 -6.53197e-22)
(0.173739 -0.00414784 0)
(0.171028 0.00122997 0)
(0.168246 0.0061555 3.06447e-22)
(0.165472 0.0105967 -1.60636e-21)
(0.162774 0.0145441 -2.62041e-22)
(0.160209 0.018006 1.75204e-21)
(0.157819 0.0210036 4.44496e-21)
(0.155631 0.023563 -4.68644e-21)
(0.153654 0.0257087 -4.28321e-21)
(0.151914 0.0274829 4.40401e-21)
(0.150841 0.0293458 0)
(0.17774 -0.0619833 0)
(0.177287 -0.0633979 0)
(0.177204 -0.0646605 0)
(0.177333 -0.0655379 -2.94418e-20)
(0.177646 -0.0659391 1.45858e-20)
(0.178117 -0.0657992 1.73477e-20)
(0.17872 -0.0650456 1.84449e-21)
(0.179406 -0.0635893 1.3328e-20)
(0.180106 -0.0613945 -1.15098e-21)
(0.180745 -0.0584399 -1.24971e-20)
(0.181237 -0.054732 -6.6613e-22)
(0.181495 -0.0503121 -1.16708e-21)
(0.181441 -0.0452572 -2.2983e-21)
(0.18101 -0.039678 1.71078e-21)
(0.180162 -0.0337116 -9.27604e-20)
(0.178882 -0.0275117 9.27671e-20)
(0.177186 -0.0212367 4.86212e-22)
(0.175114 -0.0150378 -3.75715e-22)
(0.17273 -0.00904886 2.08033e-23)
(0.170109 -0.00337958 -6.68991e-23)
(0.167336 0.00188824 1.7326e-21)
(0.164494 0.00670071 6.25721e-22)
(0.161659 0.0110295 -2.20996e-21)
(0.158898 0.0148679 3.95301e-22)
(0.156267 0.0182264 -2.59015e-21)
(0.153808 0.0211276 -3.63985e-21)
(0.151547 0.0235982 6.37752e-21)
(0.149494 0.0256641 0)
(0.147678 0.0273702 0)
(0.146518 0.0291677 0)
(0.174091 -0.0629345 -3.44668e-20)
(0.173673 -0.0641484 3.63342e-20)
(0.173651 -0.0652368 0)
(0.173838 -0.0659294 -1.67629e-20)
(0.174201 -0.0661357 1.90253e-20)
(0.174709 -0.0657987 1.56465e-20)
(0.175338 -0.0648323 -1.9906e-20)
(0.176032 -0.063171 0)
(0.176722 -0.0607833 -1.69661e-21)
(0.177333 -0.0576533 0)
(0.17778 -0.0537943 1.06128e-24)
(0.17798 -0.0492536 7.28624e-24)
(0.177856 -0.0441127 5.04321e-22)
(0.17735 -0.0384844 2.02354e-22)
(0.176424 -0.0325055 -9.03814e-20)
(0.17507 -0.0263272 9.0364e-20)
(0.173304 -0.0201034 -6.01767e-23)
(0.171169 -0.0139797 -3.89329e-23)
(0.168727 -0.00808385 -4.47286e-23)
(0.166055 -0.00251958 -4.80732e-23)
(0.163234 0.00263658 0)
(0.160345 0.00733514 -3.1355e-22)
(0.157463 0.0115511 0)
(0.154652 0.0152803 2.90468e-21)
(0.151968 0.0185348 -3.65602e-21)
(0.149452 0.0213384 -3.60372e-21)
(0.147128 0.0237182 3.96612e-21)
(0.145008 0.0257011 0)
(0.143124 0.0273346 -5.54315e-21)
(0.141884 0.0290592 6.09303e-21)
(0.169952 -0.0637575 0)
(0.169576 -0.0647691 7.989e-23)
(0.169618 -0.06568 3.87038e-20)
(0.169866 -0.0661825 -3.69576e-20)
(0.170276 -0.0661901 2.23586e-21)
(0.170821 -0.0656453 -4.29136e-21)
(0.171473 -0.0644609 2.03903e-21)
(0.17217 -0.0625931 0)
(0.172846 -0.0600116 0)
(0.173423 -0.0567074 0)
(0.17382 -0.052701 7.21257e-22)
(0.173957 -0.0480456 -3.88146e-21)
(0.173762 -0.0428265 6.09809e-21)
(0.173181 -0.0371582 -2.62442e-21)
(0.172182 -0.0311766 -8.52001e-20)
(0.170758 -0.0250295 8.61474e-20)
(0.16893 -0.0188659 -4.18232e-22)
(0.166741 -0.0128253 -1.52849e-22)
(0.164255 -0.00702893 3.88026e-22)
(0.161544 -0.00157454 1.2257e-22)
(0.158689 0.0034666 2.32186e-22)
(0.155767 0.00804915 0)
(0.152852 0.0121513 0)
(0.150006 0.0157708 5.40181e-22)
(0.147282 0.0189211 -1.25447e-21)
(0.144721 0.0216267 7.00184e-22)
(0.142346 0.0239148 1.02664e-20)
(0.140169 0.0258131 -9.33302e-21)
(0.138226 0.0273712 1.14905e-22)
(0.136912 0.0290179 0)
(0.16527 -0.0644291 -3.89327e-20)
(0.164943 -0.0652391 3.6107e-20)
(0.165054 -0.065965 1.69335e-20)
(0.165366 -0.0662694 -1.96865e-20)
(0.165823 -0.0660734 -2.05554e-20)
(0.166407 -0.0653077 2.10566e-20)
(0.167076 -0.0639045 1.67653e-20)
(0.167773 -0.0618281 -1.50133e-20)
(0.168429 -0.0590532 8.07592e-21)
(0.168968 -0.0555783 -7.23142e-21)
(0.169311 -0.0514311 6.24111e-21)
(0.169382 -0.04667 -3.26202e-21)
(0.169115 -0.0413842 -2.05449e-21)
(0.16846 -0.0356886 9.51691e-23)
(0.167391 -0.0297176 -7.91042e-20)
(0.165905 -0.023615 7.90797e-20)
(0.164024 -0.017524 -6.14662e-24)
(0.161793 -0.0115773 4.15163e-22)
(0.159274 -0.00588962 1.02409e-21)
(0.156539 -0.000552361 -1.38378e-21)
(0.153664 0.00436839 2.12825e-21)
(0.150725 0.00883134 -1.98273e-21)
(0.147792 0.0128174 6.64524e-21)
(0.144925 0.0163263 -5.76173e-21)
(0.142175 0.0193722 -5.61549e-21)
(0.139581 0.0219798 5.4671e-21)
(0.137166 0.0241763 6.34882e-21)
(0.134944 0.0259895 -6.91011e-21)
(0.13295 0.027471 -1.08061e-20)
(0.131569 0.0290372 1.02372e-20)
(0.159988 -0.064921 -2.60314e-21)
(0.159714 -0.0655284 -4.09965e-20)
(0.159901 -0.0660588 4.51136e-20)
(0.160279 -0.0661572 0)
(0.160789 -0.065747 -2.5386e-21)
(0.161409 -0.0647523 0)
(0.162094 -0.0631287 -2.33488e-21)
(0.162786 -0.0608432 1.64403e-20)
(0.163418 -0.0578777 -1.76753e-20)
(0.163914 -0.0542387 8.89259e-22)
(0.1642 -0.0499605 -1.54263e-21)
(0.164203 -0.0451068 -6.41162e-22)
(0.163863 -0.0397695 -2.62517e-22)
(0.163137 -0.0340637 -9.87831e-23)
(0.162003 -0.0281208 -6.96671e-20)
(0.160462 -0.0220799 6.96551e-20)
(0.158538 -0.0160776 6.38028e-24)
(0.156277 -0.0102394 -3.99321e-23)
(0.15374 -0.00467278 2.34115e-22)
(0.150995 0.0005373 0)
(0.148117 0.00532999 3.84912e-22)
(0.145177 0.00966787 6.37166e-21)
(0.142241 0.0135344 -6.46579e-21)
(0.139368 0.0169307 -1.00404e-21)
(0.136606 0.0198716 0)
(0.133992 0.0223814 -1.04346e-21)
(0.13155 0.0244867 0)
(0.129292 0.0262154 -1.37564e-20)
(0.127257 0.0276203 1.43897e-20)
(0.125817 0.0291053 -7.84057e-22)
(0.154033 -0.0651969 -4.13236e-20)
(0.153824 -0.0655944 4.33931e-20)
(0.154094 -0.065918 1.08585e-22)
(0.15454 -0.0658036 2.39291e-20)
(0.155107 -0.065164 -3.98782e-20)
(0.155762 -0.063938 2.38007e-20)
(0.15646 -0.0620926 2.40347e-21)
(0.157145 -0.0595998 4.67374e-23)
(0.157747 -0.0564498 0)
(0.158196 -0.0526567 -9.18342e-22)
(0.15842 -0.0482618 -4.18839e-21)
(0.158354 -0.0433332 6.50748e-21)
(0.157942 -0.0379647 2.50827e-22)
(0.157148 -0.0322704 -4.98297e-22)
(0.155955 -0.0263781 -5.66757e-20)
(0.154368 -0.0204209 5.72957e-20)
(0.152414 -0.014528 -7.59173e-24)
(0.150137 -0.00881685 1.02172e-22)
(0.147596 -0.00338733 -2.80773e-21)
(0.144859 0.00168228 2.53619e-21)
(0.141994 0.00633646 -3.97496e-22)
(0.13907 0.0105415 0)
(0.136148 0.0142833 -9.81589e-22)
(0.133285 0.017564 1.03352e-21)
(0.130526 0.0203983 -8.06356e-21)
(0.127907 0.0228102 1.94861e-20)
(0.125449 0.0248251 -7.85184e-21)
(0.123166 0.0264703 1.7479e-22)
(0.1211 0.0277996 -1.54096e-20)
(0.119609 0.029204 1.63921e-20)
(0.147322 -0.0652051 0)
(0.147192 -0.0653827 0)
(0.147549 -0.0654887 -2.57667e-20)
(0.148072 -0.0651502 2.08632e-20)
(0.148697 -0.0642717 0)
(0.149387 -0.0628132 -2.6693e-21)
(0.150096 -0.0607464 -2.5996e-21)
(0.150768 -0.0580514 -2.35385e-21)
(0.151337 -0.0547268 0)
(0.151734 -0.0507948 0)
(0.151894 -0.0463028 -8.16903e-22)
(0.151757 -0.0413228 2.65978e-21)
(0.151275 -0.0359494 -2.85836e-21)
(0.150418 -0.0302946 -9.01745e-23)
(0.149173 -0.0244813 -4.15235e-20)
(0.147551 -0.0186354 4.1509e-20)
(0.145579 -0.0128777 -2.10716e-23)
(0.143302 -0.00731714 9.642e-22)
(0.140776 -0.00204522 -1.19978e-21)
(0.138063 0.00286673 0)
(0.135231 0.00736857 0)
(0.132341 0.0114303 0)
(0.129453 0.0150398 0)
(0.126617 0.0181998 -1.43894e-21)
(0.123877 0.0209251 -1.269e-21)
(0.121267 0.0232383 0)
(0.118807 0.0251632 -1.22719e-20)
(0.116511 0.0267263 9.43574e-21)
(0.114423 0.0279815 0)
(0.11289 0.029307 0)
(0.139752 -0.0648761 -3.12197e-21)
(0.139716 -0.0648223 0)
(0.140171 -0.0647019 0)
(0.140778 -0.064123 0)
(0.141463 -0.0630027 0)
(0.142186 -0.0613113 0)
(0.142903 -0.0590273 2.65502e-21)
(0.143558 -0.0561399 1.26138e-21)
(0.144088 -0.0526567 -8.36865e-21)
(0.144429 -0.0486076 2.29454e-21)
(0.144521 -0.0440454 1.41346e-20)
(0.144312 -0.0390449 -8.69055e-21)
(0.143762 -0.0337004 7.34286e-22)
(0.142847 -0.0281205 1.62448e-21)
(0.141562 -0.0224218 -2.19043e-20)
(0.139917 -0.0167218 2.18578e-20)
(0.137943 -0.0111319 -1.03378e-21)
(0.135683 -0.00575136 -5.87002e-22)
(0.133191 -0.000662949 5.63199e-21)
(0.130525 0.00406931 -8.25927e-21)
(0.127746 0.00840073 7.4597e-24)
(0.124913 0.0123049 5.36262e-21)
(0.122078 0.0157715 8.17277e-22)
(0.119289 0.0188038 1.4696e-21)
(0.116587 0.0214156 0)
(0.114002 0.0236279 0)
(0.111555 0.0254628 0)
(0.109258 0.0269452 0)
(0.107158 0.0281282 0)
(0.105591 0.0293767 -1.42498e-21)
(0.131201 -0.0641156 6.47939e-21)
(0.131276 -0.0638198 -2.58748e-20)
(0.131841 -0.0634577 2.68914e-20)
(0.132537 -0.0626295 0)
(0.133281 -0.0612672 -2.42824e-20)
(0.134035 -0.0593463 2.80537e-20)
(0.134755 -0.056855 -2.28683e-20)
(0.135387 -0.0537923 1.93644e-20)
(0.135871 -0.0501746 0)
(0.13615 -0.046039 6.37345e-21)
(0.136172 -0.0414428 -2.35644e-21)
(0.135892 -0.0364626 -8.35051e-21)
(0.135278 -0.0311908 2.53276e-21)
(0.134313 -0.0257309 3.65838e-22)
(0.132998 -0.0201918 1.77849e-21)
(0.131346 -0.0146811 -1.82639e-21)
(0.129389 -0.00929963 -3.66841e-22)
(0.127168 -0.0041361 -1.79311e-21)
(0.124733 0.000736017 6.94594e-21)
(0.122138 0.00526037 1.0249e-21)
(0.119437 0.00939785 -6.44115e-21)
(0.116684 0.0131255 -9.07564e-22)
(0.113926 0.0164347 -1.64791e-20)
(0.111207 0.0193286 1.33334e-20)
(0.108563 0.0218199 -1.32528e-20)
(0.106023 0.0239275 1.48496e-20)
(0.103605 0.025671 0)
(0.101323 0.0270731 -1.45616e-20)
(0.0992225 0.0281857 1.40982e-20)
(0.0976299 0.0293594 3.14337e-21)
(0.121512 -0.0627901 2.10154e-20)
(0.121717 -0.0622408 -2.73464e-20)
(0.122402 -0.0616229 -2.38301e-20)
(0.123188 -0.060545 2.83841e-20)
(0.123992 -0.0589437 2.89368e-20)
(0.124772 -0.0568038 -5.67355e-20)
(0.125488 -0.0541242 3.8924e-20)
(0.126088 -0.0509136 -1.01336e-20)
(0.126519 -0.0471972 0)
(0.126731 -0.0430182 -7.50161e-21)
(0.126679 -0.0384374 6.78849e-21)
(0.126328 -0.0335314 -3.20475e-22)
(0.125656 -0.0283891 -6.75704e-22)
(0.124652 -0.023107 8.08646e-22)
(0.123321 -0.0177846 3.11089e-20)
(0.121682 -0.0125181 -3.09784e-20)
(0.119764 -0.00739633 -1.17677e-21)
(0.117607 -0.00249672 8.98083e-22)
(0.115257 0.00211733 -3.7516e-22)
(0.112761 0.00639746 -8.5498e-21)
(0.110168 0.0103102 7.78295e-21)
(0.107525 0.0138361 1.98307e-21)
(0.104872 0.0169677 9.53519e-21)
(0.10225 0.0197079 -2.37494e-20)
(0.0996887 0.0220678 3.04382e-20)
(0.097216 0.0240637 -1.48681e-20)
(0.0948474 0.025712 -1.75624e-20)
(0.0925969 0.027033 1.70003e-20)
(0.0905118 0.0280761 1.53517e-20)
(0.0889043 0.0291765 -1.93692e-20)
(0.110483 -0.060704 3.33401e-20)
(0.110837 -0.0598885 3.93335e-21)
(0.111646 -0.0590147 -4.89913e-21)
(0.112521 -0.0576907 -3.00181e-20)
(0.113378 -0.0558631 -3.40616e-21)
(0.114176 -0.0535269 4.93408e-21)
(0.114876 -0.050692 6.6421e-23)
(0.115432 -0.0473771 0)
(0.115801 -0.0436148 0)
(0.115938 -0.0394536 -7.56012e-21)
(0.115811 -0.0349559 8.5602e-21)
(0.115393 -0.0301964 3.2276e-22)
(0.11467 -0.0252583 0)
(0.113641 -0.0202292 2.60113e-23)
(0.112315 -0.0151969 6.60086e-20)
(0.110712 -0.0102448 -6.57384e-20)
(0.108863 -0.00544853 -5.09662e-22)
(0.106802 -0.000872918 0)
(0.104571 0.00342921 3.77832e-22)
(0.10221 0.00741778 -7.26212e-21)
(0.0997604 0.0110651 7.00436e-21)
(0.0972616 0.0143549 -1.06894e-21)
(0.0947494 0.0172809 0)
(0.092256 0.0198452 1.81466e-22)
(0.0898097 0.0220568 3.71835e-21)
(0.0874333 0.0239289 -2.36163e-21)
(0.0851404 0.0254745 2.0274e-20)
(0.0829449 0.0267106 -1.92492e-23)
(0.080894 0.0276831 1.53722e-21)
(0.0792858 0.0287096 -1.62649e-20)
(0.0978382 -0.0575566 -3.17561e-20)
(0.0983553 -0.0564805 2.71986e-20)
(0.0992847 -0.0553573 0)
(0.10024 -0.0538051 -2.75316e-20)
(0.101136 -0.0517813 3.2431e-20)
(0.101933 -0.0492924 -1.4796e-20)
(0.102601 -0.0463587 2.39604e-20)
(0.103099 -0.0430079 -1.08766e-20)
(0.103393 -0.0392791 0)
(0.103449 -0.0352236 0)
(0.103246 -0.0309036 3.27599e-21)
(0.102767 -0.0263892 -3.1975e-21)
(0.102008 -0.0217555 0)
(0.100974 -0.0170788 3.41453e-23)
(0.0996798 -0.0124331 1.07532e-19)
(0.0981466 -0.00788707 -1.0757e-19)
(0.0964025 -0.0035017 1.35339e-22)
(0.094479 0.000671456 0)
(0.0924096 0.00459086 3.68426e-21)
(0.0902282 0.00822502 -3.53954e-21)
(0.0879676 0.011552 0)
(0.0856591 0.0145587 0)
(0.0833312 0.0172394 1.292e-20)
(0.0810102 0.0195951 -2.40937e-20)
(0.0787193 0.0216322 9.96735e-21)
(0.0764775 0.0233606 -2.19448e-20)
(0.0742961 0.0247892 2.4311e-20)
(0.072188 0.025931 0)
(0.0701995 0.0268276 -2.33096e-20)
(0.0686118 0.0277754 1.84687e-20)
(0.0831896 -0.0528711 -3.17547e-20)
(0.0838661 -0.0515605 3.08825e-20)
(0.084897 -0.0502188 -3.23821e-20)
(0.0859066 -0.0484852 5.5953e-22)
(0.0868126 -0.0463297 9.54482e-22)
(0.0875831 -0.0437692 4.5748e-20)
(0.0881929 -0.0408332 -1.40348e-20)
(0.0886135 -0.0375564 -1.44952e-21)
(0.0888191 -0.0339821 9.24078e-21)
(0.0887899 -0.0301621 -1.68669e-20)
(0.0885141 -0.0261553 7.54804e-21)
(0.0879879 -0.0220242 1.94555e-21)
(0.0872156 -0.0178327 -1.97425e-21)
(0.0862089 -0.0136432 1.72036e-22)
(0.0849855 -0.00951365 1.56879e-19)
(0.0835675 -0.00549626 -1.56164e-19)
(0.0819796 -0.00163604 -2.34609e-21)
(0.0802478 0.00202958 5.94359e-21)
(0.0783981 0.00547073 -3.65856e-21)
(0.0764556 0.00866467 -1.0905e-20)
(0.0744441 0.0115952 2.27161e-20)
(0.072386 0.0142519 -1.16424e-20)