/*--------------------------------*- C++ -*----------------------------------*\
  =========                 |
  \\      /  F ield         | OpenFOAM: The Open Source CFD Toolbox
   \\    /   O peration     | Website:  https://openfoam.org
    \\  /    A nd           | Version:  12
     \\/     M anipulation  |
\*---------------------------------------------------------------------------*/
FoamFile
{
    format      ascii;
    class       volSymmTensorField;
    location    "360";
    object      UPrime2Mean;
}
// * * * * * * * * * * * * * * * * * * * * * * * * * * * * * * * * * * * * * //

dimensions      [0 2 -2 0 0 0 0];

internalField   nonuniform List<symmTensor> 
6750
(
(1.96411e-10 2.75176e-09 0 7.54556e-08 0 0)
(4.64071e-09 5.35598e-08 0 1.06219e-06 0 0)
(1.50576e-08 1.81097e-07 0 3.40656e-06 0 0)
(2.79679e-08 3.68611e-07 0 7.13867e-06 0 0)
(6.62581e-08 7.88401e-07 0 1.21364e-05 0 0)
(1.74293e-11 2.8067e-10 0 5.69465e-08 0 0)
(8.30326e-10 2.17376e-08 0 8.8798e-07 0 0)
(5.74416e-09 1.08574e-07 0 2.90973e-06 0 0)
(1.98022e-08 3.03816e-07 0 6.08991e-06 0 0)
(5.27618e-08 6.62547e-07 0 1.02254e-05 0 0)
(1.43915e-11 3.07348e-10 0 5.17797e-08 0 0)
(6.47045e-10 2.12153e-08 0 8.08493e-07 0 0)
(5.81751e-09 1.15298e-07 0 2.61498e-06 0 0)
(2.2744e-08 3.28745e-07 0 5.35406e-06 0 0)
(5.92681e-08 6.80777e-07 0 8.73062e-06 0 0)
(1.22845e-11 2.82421e-10 0 4.53007e-08 0 0)
(9.24955e-10 2.49514e-08 0 7.13473e-07 0 0)
(7.8917e-09 1.30789e-07 0 2.28346e-06 0 0)
(2.89725e-08 3.56081e-07 0 4.60964e-06 0 0)
(6.99529e-08 7.00982e-07 0 7.41187e-06 0 0)
(9.41328e-12 2.18648e-10 0 3.80611e-08 0 0)
(1.23669e-09 2.71017e-08 0 6.1007e-07 0 0)
(1.02261e-08 1.39562e-07 0 1.94593e-06 0 0)
(3.57754e-08 3.69558e-07 0 3.90159e-06 0 0)
(8.23458e-08 7.08147e-07 0 6.23418e-06 0 0)
(6.45079e-12 1.25028e-10 0 3.09539e-08 0 0)
(1.47733e-09 2.7201e-08 0 5.06743e-07 0 0)
(1.2367e-08 1.40922e-07 0 1.61822e-06 0 0)
(4.25889e-08 3.69844e-07 0 3.2362e-06 0 0)
(9.62925e-08 7.01813e-07 0 5.157e-06 0 0)
(5.09455e-12 3.08497e-11 0 2.44368e-08 0 0)
(1.65804e-09 2.59541e-08 0 4.08418e-07 0 0)
(1.43734e-08 1.3701e-07 0 1.30852e-06 0 0)
(4.96575e-08 3.60103e-07 0 2.61575e-06 0 0)
(1.12138e-07 6.82741e-07 0 4.16397e-06 0 0)
(6.26346e-12 -4.3763e-11 0 1.86821e-08 0 0)
(1.81291e-09 2.39397e-08 0 3.17946e-07 0 0)
(1.63636e-08 1.29299e-07 0 1.02264e-06 0 0)
(5.71397e-08 3.41771e-07 0 2.04535e-06 0 0)
(1.29797e-07 6.49869e-07 0 3.255e-06 0 0)
(9.97509e-12 -9.22715e-11 0 1.37315e-08 0 0)
(1.96211e-09 2.14493e-08 0 2.37193e-07 0 0)
(1.83641e-08 1.18418e-07 0 7.65803e-07 0 0)
(6.48892e-08 3.15074e-07 0 1.53297e-06 0 0)
(1.48566e-07 6.01513e-07 0 2.43963e-06 0 0)
(1.56095e-11 -1.15765e-10 0 9.58212e-09 0 0)
(2.10962e-09 1.86073e-08 0 1.67505e-07 0 0)
(2.03157e-08 1.0467e-07 0 5.42635e-07 0 0)
(7.2527e-08 2.80148e-07 0 1.08721e-06 0 0)
(1.67308e-07 5.36922e-07 0 1.73044e-06 0 0)
(2.21806e-11 -1.18505e-10 0 6.22029e-09 0 0)
(2.24925e-09 1.54801e-08 0 1.09807e-07 0 0)
(2.21152e-08 8.8392e-08 0 3.56801e-07 0 0)
(7.95679e-08 2.37691e-07 0 7.15484e-07 0 0)
(1.84703e-07 4.57049e-07 0 1.13896e-06 0 0)
(2.86243e-11 -1.05482e-10 0 3.62585e-09 0 0)
(2.36955e-09 1.21296e-08 0 6.45749e-08 0 0)
(2.36472e-08 7.00814e-08 0 2.10454e-07 0 0)
(8.55489e-08 1.89114e-07 0 4.22365e-07 0 0)
(1.9954e-07 3.64565e-07 0 6.72452e-07 0 0)
(3.38456e-11 -8.07217e-11 0 1.7675e-09 0 0)
(2.45604e-09 8.63302e-09 0 3.17903e-08 0 0)
(2.48115e-08 5.03961e-08 0 1.0399e-07 0 0)
(9.01098e-08 1.36351e-07 0 2.0887e-07 0 0)
(2.1092e-07 2.63348e-07 0 3.3259e-07 0 0)
(3.60097e-11 -4.63031e-11 0 5.98665e-10 0 0)
(2.48816e-09 5.0872e-09 0 1.09572e-08 0 0)
(2.55376e-08 3.00837e-08 0 3.60599e-08 0 0)
(9.30447e-08 8.15742e-08 0 7.24868e-08 0 0)
(2.18362e-07 1.57776e-07 0 1.15439e-07 0 0)
(3.15724e-11 -1.13166e-11 0 6.46529e-11 0 0)
(2.41994e-09 1.61299e-09 0 1.13944e-09 0 0)
(2.5806e-08 9.87298e-09 0 3.84456e-09 0 0)
(9.43537e-08 2.68855e-08 0 7.7628e-09 0 0)
(2.21849e-07 5.2099e-08 0 1.23852e-08 0 0)
(3.16169e-11 8.72782e-12 0 8.06194e-11 0 0)
(2.42037e-09 -1.6638e-09 0 1.21648e-09 0 0)
(2.58051e-08 -1.00518e-08 0 4.00089e-09 0 0)
(9.43508e-08 -2.72129e-08 0 7.98363e-09 0 0)
(2.21841e-07 -5.25722e-08 0 1.26575e-08 0 0)
(3.59482e-11 4.46077e-11 0 6.46728e-10 0 0)
(2.48709e-09 -5.13831e-09 0 1.11953e-08 0 0)
(2.55338e-08 -3.02606e-08 0 3.65361e-08 0 0)
(9.30341e-08 -8.18961e-08 0 7.31572e-08 0 0)
(2.18335e-07 -1.58238e-07 0 1.16265e-07 0 0)
(3.37131e-11 7.97915e-11 0 1.84814e-09 0 0)
(2.4539e-09 -8.68135e-09 0 3.21943e-08 0 0)
(2.48045e-08 -5.05662e-08 0 1.04795e-07 0 0)
(9.00912e-08 -1.36659e-07 0 2.10001e-07 0 0)
(2.10874e-07 -2.63784e-07 0 3.3398e-07 0 0)
(2.84648e-11 1.05534e-10 0 3.73736e-09 0 0)
(2.36663e-09 -1.2173e-08 0 6.51463e-08 0 0)
(2.36379e-08 -7.02404e-08 0 2.11591e-07 0 0)
(8.55243e-08 -1.89401e-07 0 4.23958e-07 0 0)
(1.99478e-07 -3.64962e-07 0 6.74405e-07 0 0)
(2.20352e-11 1.19754e-10 0 6.35956e-09 0 0)
(2.246e-09 -1.55172e-08 0 1.10545e-07 0 0)
(2.21048e-08 -8.85376e-08 0 3.58269e-07 0 0)
(7.954e-08 -2.37953e-07 0 7.17532e-07 0 0)
(1.84628e-07 -4.57394e-07 0 1.14146e-06 0 0)
(1.55221e-11 1.18265e-10 0 9.74485e-09 0 0)
(2.10642e-09 -1.86373e-08 0 1.68406e-07 0 0)
(2.03054e-08 -1.04801e-07 0 5.4443e-07 0 0)
(7.24979e-08 -2.8038e-07 0 1.08971e-06 0 0)
(1.6722e-07 -5.37202e-07 0 1.73346e-06 0 0)
(9.98906e-12 9.59743e-11 0 1.39124e-08 0 0)
(1.95894e-09 -2.14696e-08 0 2.38251e-07 0 0)
(1.83526e-08 -1.18527e-07 0 7.67914e-07 0 0)
(6.48584e-08 -3.15268e-07 0 1.53587e-06 0 0)
(1.48472e-07 -6.01717e-07 0 2.44307e-06 0 0)
(6.40445e-12 4.86108e-11 0 1.88746e-08 0 0)
(1.80911e-09 -2.39435e-08 0 3.19143e-07 0 0)
(1.63469e-08 -1.29364e-07 0 1.02505e-06 0 0)
(5.70985e-08 -3.41893e-07 0 2.04862e-06 0 0)
(1.29699e-07 -6.49994e-07 0 3.2588e-06 0 0)
(5.35354e-12 -2.52277e-11 0 2.46333e-08 0 0)
(1.65395e-09 -2.59405e-08 0 4.09726e-07 0 0)
(1.43536e-08 -1.3703e-07 0 1.3112e-06 0 0)
(4.96156e-08 -3.60183e-07 0 2.61949e-06 0 0)
(1.12042e-07 -6.82843e-07 0 4.16857e-06 0 0)
(6.79932e-12 -1.19427e-10 0 3.11485e-08 0 0)
(1.47396e-09 -2.7178e-08 0 5.08138e-07 0 0)
(1.23508e-08 -1.40928e-07 0 1.62116e-06 0 0)
(4.25611e-08 -3.69946e-07 0 3.24044e-06 0 0)
(9.62158e-08 -7.01948e-07 0 5.1624e-06 0 0)
(9.80419e-12 -2.13464e-10 0 3.82501e-08 0 0)
(1.23397e-09 -2.70706e-08 0 6.11539e-07 0 0)
(1.02127e-08 -1.39555e-07 0 1.94918e-06 0 0)
(3.57533e-08 -3.69663e-07 0 3.90647e-06 0 0)
(8.22755e-08 -7.08282e-07 0 6.24063e-06 0 0)
(1.26515e-11 -2.78129e-10 0 4.54817e-08 0 0)
(9.22838e-10 -2.49161e-08 0 7.14996e-07 0 0)
(7.88106e-09 -1.30776e-07 0 2.28699e-06 0 0)
(2.89562e-08 -3.5621e-07 0 4.61528e-06 0 0)
(6.98873e-08 -7.01101e-07 0 7.41959e-06 0 0)
(1.46475e-11 -3.04024e-10 0 5.19516e-08 0 0)
(6.44926e-10 -2.11769e-08 0 8.10046e-07 0 0)
(5.80783e-09 -1.15278e-07 0 2.61876e-06 0 0)
(2.27251e-08 -3.28844e-07 0 5.36047e-06 0 0)
(5.91989e-08 -6.80766e-07 0 8.73987e-06 0 0)
(1.75249e-11 -2.78831e-10 0 5.71076e-08 0 0)
(8.27319e-10 -2.1704e-08 0 8.8953e-07 0 0)
(5.73319e-09 -1.0855e-07 0 2.91371e-06 0 0)
(1.97789e-08 -3.0387e-07 0 6.09706e-06 0 0)
(5.2693e-08 -6.62307e-07 0 1.02363e-05 0 0)
(1.96016e-10 -2.75003e-09 0 7.56047e-08 0 0)
(4.63343e-09 -5.35207e-08 0 1.06367e-06 0 0)
(1.5039e-08 -1.81021e-07 0 3.41055e-06 0 0)
(2.79351e-08 -3.68423e-07 0 7.14621e-06 0 0)
(6.6179e-08 -7.87698e-07 0 1.21484e-05 0 0)
(7.03512e-07 4.36132e-06 0 2.94945e-05 0 0)
(1.63921e-06 8.00845e-06 0 4.16474e-05 0 0)
(2.88119e-06 1.22708e-05 0 5.49876e-05 0 0)
(4.22273e-06 1.6673e-05 -3.90726e-25 6.88804e-05 -1.02902e-24 7.79267e-43)
(5.62403e-06 2.10996e-05 0 8.25295e-05 0 0)
(7.04696e-06 2.54092e-05 0 9.52631e-05 0 0)
(8.44121e-06 2.94295e-05 3.995e-23 0.000106465 1.05827e-22 3.01118e-39)
(9.77103e-06 3.30075e-05 -4.40845e-23 0.000115524 -1.15638e-22 3.06421e-39)
(1.09861e-05 3.59726e-05 -3.73916e-25 0.000121834 -9.75067e-25 1.72293e-43)
(1.21455e-05 3.83951e-05 -2.59782e-23 0.000125322 -6.71496e-23 6.50923e-40)
(1.31899e-05 4.00957e-05 5.11087e-26 0.000125505 -5.32346e-26 1.31391e-42)
(1.41421e-05 4.09627e-05 1.37227e-25 0.000121748 2.0311e-25 1.54992e-42)
(1.50156e-05 4.107e-05 1.53763e-23 0.000114708 3.7194e-23 1.55033e-40)
(1.58299e-05 4.04472e-05 1.5753e-23 0.000104889 3.69615e-23 1.26881e-40)
(1.66072e-05 3.91379e-05 3.78807e-23 9.30228e-05 8.56419e-23 5.70399e-40)
(1.73685e-05 3.71858e-05 -3.89668e-23 7.9986e-05 -8.43998e-23 5.70505e-40)
(1.81393e-05 3.46354e-05 1.60799e-23 6.66966e-05 3.30925e-23 7.65658e-41)
(1.89455e-05 3.15234e-05 1.53803e-23 5.39965e-05 2.9804e-23 5.52956e-41)
(1.98154e-05 2.78936e-05 -8.27165e-25 4.26018e-05 -1.52652e-24 1.64991e-42)
(2.07852e-05 2.38056e-05 -8.93372e-25 3.30373e-05 -1.48117e-24 1.43027e-42)
(2.19264e-05 1.93541e-05 -3.15959e-23 2.55994e-05 -4.74274e-23 1.94905e-40)
(2.32472e-05 1.45336e-05 4.86212e-25 2.01996e-05 6.37014e-25 3.93092e-44)
(2.47081e-05 9.44603e-06 -5.9509e-23 1.68672e-05 -6.73801e-23 5.12736e-40)
(2.63105e-05 4.21436e-06 6.05221e-23 1.53985e-05 5.64391e-23 5.03699e-40)
(2.80377e-05 -1.04419e-06 0 1.54774e-05 0 0)
(2.98519e-05 -6.21942e-06 0 1.67388e-05 0 0)
(3.17055e-05 -1.12098e-05 9.30535e-25 1.88166e-05 3.1578e-25 8.29711e-44)
(3.35729e-05 -1.59137e-05 0 2.13749e-05 0 0)
(3.55019e-05 -2.02067e-05 0 2.41001e-05 0 0)
(3.72713e-05 -2.39556e-05 0 2.66499e-05 0 0)
(1.10016e-06 6.00918e-06 0 3.53935e-05 0 0)
(2.15738e-06 9.93002e-06 0 4.84378e-05 0 0)
(3.38298e-06 1.40755e-05 0 6.1542e-05 0 0)
(4.69102e-06 1.82862e-05 3.90236e-25 7.45627e-05 1.02171e-24 6.93156e-43)
(6.06751e-06 2.25029e-05 0 8.70177e-05 0 0)
(7.46958e-06 2.65822e-05 0 9.83979e-05 0 0)
(8.85434e-06 3.03725e-05 -3.83168e-23 0.000108178 -9.93905e-23 2.60293e-39)
(1.01948e-05 3.37453e-05 4.28056e-23 0.000115839 1.09319e-22 2.7259e-39)
(1.14506e-05 3.65613e-05 3.59627e-25 0.000120895 9.09546e-25 1.51872e-43)
(1.26837e-05 3.8916e-05 0 0.000123451 0 0)
(1.38241e-05 4.05708e-05 0 0.000122791 0 0)
(1.49172e-05 4.15069e-05 2.76731e-23 0.000118704 6.57112e-23 4.78877e-40)
(1.5947e-05 4.17413e-05 -2.90929e-23 0.000111754 -6.69363e-23 4.81894e-40)
(1.69264e-05 4.12909e-05 0 0.000102397 0 0)
(1.78637e-05 4.0177e-05 1.06237e-22 9.12729e-05 2.28234e-22 4.20927e-39)
(1.87655e-05 3.8423e-05 -1.09513e-22 7.91278e-05 -2.25732e-22 4.2066e-39)
(1.96439e-05 3.60585e-05 0 6.67336e-05 0 0)
(2.05179e-05 3.31192e-05 -3.1233e-23 5.48154e-05 -5.80598e-23 2.34136e-40)
(2.14129e-05 2.96491e-05 3.19614e-23 4.39833e-05 5.57734e-23 2.36449e-40)
(2.23667e-05 2.57124e-05 0 3.47049e-05 0 0)
(2.34099e-05 2.13724e-05 0 2.72588e-05 0 0)
(2.45844e-05 1.66759e-05 -4.72706e-25 2.16559e-05 -6.22467e-25 3.45902e-44)
(2.59004e-05 1.17253e-05 5.88702e-23 1.79271e-05 6.67988e-23 4.63436e-40)
(2.73352e-05 6.61359e-06 -6.06193e-23 1.59359e-05 -5.78978e-23 4.71164e-40)
(2.88821e-05 1.45184e-06 0 1.54457e-05 0 0)
(3.05169e-05 -3.6556e-06 0 1.61596e-05 0 0)
(3.21984e-05 -8.6168e-06 -8.86415e-25 1.77606e-05 -3.82253e-25 7.36037e-44)
(3.38854e-05 -1.33512e-05 0 1.99457e-05 0 0)
(3.56141e-05 -1.77854e-05 0 2.24466e-05 0 0)
(3.73253e-05 -2.19743e-05 0 2.50971e-05 0 0)
(1.52964e-06 7.56658e-06 0 4.00228e-05 0 0)
(2.56855e-06 1.13015e-05 0 5.2541e-05 0 0)
(3.78158e-06 1.5292e-05 0 6.49014e-05 0 0)
(5.10697e-06 1.9409e-05 -2.64471e-23 7.71046e-05 -6.83621e-23 2.81337e-39)
(6.51072e-06 2.35371e-05 3.07428e-23 8.86934e-05 7.8273e-23 2.87976e-39)
(7.95195e-06 2.75313e-05 -3.64066e-23 9.91662e-05 -9.2118e-23 2.88854e-39)
(9.40261e-06 3.12641e-05 4.0726e-23 0.000108023 1.01107e-22 2.94313e-39)
(1.08429e-05 3.46212e-05 -7.11721e-25 0.000114798 -1.74251e-24 6.83638e-43)
(1.22483e-05 3.74959e-05 0 0.000119106 0 0)
(1.36736e-05 3.99707e-05 0 0.000121096 0 0)
(1.50498e-05 4.17771e-05 8.8537e-25 0.000119946 2.00449e-24 5.66324e-43)
(1.64244e-05 4.29386e-05 0 0.000115749 0 0)
(1.77586e-05 4.34227e-05 0 0.000108965 0 0)
(1.90528e-05 4.32253e-05 2.59255e-25 0.000100019 5.29214e-25 2.74529e-44)
(2.02947e-05 4.23409e-05 1.91566e-22 8.94915e-05 3.76653e-22 1.1974e-38)
(2.14709e-05 4.0772e-05 -1.98263e-22 7.80439e-05 -3.73507e-22 1.19738e-38)
(2.25746e-05 3.85331e-05 -2.79448e-25 6.63556e-05 -5.03014e-25 1.97092e-44)
(2.36106e-05 3.56548e-05 0 5.5061e-05 0 0)
(2.45979e-05 3.21851e-05 0 4.4701e-05 0 0)
(2.55717e-05 2.81929e-05 -1.12136e-24 3.56897e-05 -1.6777e-24 2.14958e-43)
(2.65734e-05 2.37586e-05 0 2.82906e-05 0 0)
(2.76433e-05 1.89759e-05 0 2.26315e-05 0 0)
(2.8803e-05 1.39273e-05 1.06994e-24 1.86859e-05 1.16827e-24 1.39241e-43)
(3.00566e-05 8.71929e-06 6.72536e-23 1.63649e-05 6.25072e-23 4.85845e-40)
(3.14044e-05 3.46365e-06 -6.78111e-23 1.54861e-05 -5.20808e-23 4.76836e-40)
(3.28347e-05 -1.73509e-06 6.74656e-23 1.58033e-05 4.08255e-23 4.09678e-40)
(3.43234e-05 -6.78376e-06 -6.81776e-23 1.70404e-05 -3.02481e-23 3.99495e-40)
(3.58357e-05 -1.16001e-05 0 1.89183e-05 0 0)
(3.73509e-05 -1.6111e-05 0 2.11785e-05 0 0)
(3.86089e-05 -2.04427e-05 0 2.37394e-05 0 0)
(1.95414e-06 9.04211e-06 0 4.43877e-05 0 0)
(2.97962e-06 1.26413e-05 3.95323e-23 5.64041e-05 1.04267e-22 1.30516e-38)
(4.22479e-06 1.65848e-05 -2.42164e-23 6.81187e-05 -6.19325e-23 3.44459e-39)
(5.60398e-06 2.06729e-05 -5.92984e-23 7.95469e-05 -1.49974e-22 1.35758e-38)
(7.07539e-06 2.47664e-05 6.91547e-23 9.02529e-05 1.71694e-22 1.34107e-38)
(8.61257e-06 2.87437e-05 -3.88601e-23 9.97736e-05 -9.42956e-23 3.25708e-39)
(1.02019e-05 3.25002e-05 0 0.00010766 0 0)
(1.18235e-05 3.59224e-05 -1.50546e-24 0.000113512 -3.45882e-24 2.89403e-42)
(1.34967e-05 3.89775e-05 0 0.000117093 0 0)
(1.52145e-05 4.16323e-05 0 0.000118443 0 0)
(1.69596e-05 4.3683e-05 -3.35484e-23 0.000116829 -6.99036e-23 6.87641e-40)
(1.87461e-05 4.51346e-05 3.39623e-23 0.000112539 6.76604e-23 6.13237e-40)
(2.05243e-05 4.59234e-05 0 0.000105932 0 0)
(2.22744e-05 4.6021e-05 -2.97426e-25 9.74117e-05 -5.47408e-25 3.02592e-44)
(2.39581e-05 4.5396e-05 2.95429e-22 8.74987e-05 5.21855e-22 2.40266e-38)
(2.5536e-05 4.40289e-05 -3.0701e-22 7.67725e-05 -5.18723e-22 2.40256e-38)
(2.69776e-05 4.19197e-05 3.23892e-25 6.58202e-05 5.23437e-25 2.17236e-44)
(2.82703e-05 3.90924e-05 0 5.51897e-05 0 0)
(2.94237e-05 3.55974e-05 4.15107e-23 4.53528e-05 6.03296e-23 2.62539e-40)
(3.04705e-05 3.1512e-05 -3.93063e-23 3.66801e-05 -5.36353e-23 2.29564e-40)
(3.14603e-05 2.6933e-05 -1.28921e-24 2.94233e-05 -1.62279e-24 2.12045e-43)
(3.24428e-05 2.19664e-05 0 2.37155e-05 0 0)
(3.34547e-05 1.67189e-05 2.50575e-24 1.95764e-05 2.55401e-24 6.56399e-43)
(3.45207e-05 1.13071e-05 0 1.6947e-05 0 0)
(3.56544e-05 5.84784e-06 -7.61201e-23 1.56896e-05 -5.70205e-23 4.91952e-40)
(3.68561e-05 4.49081e-07 1.48684e-22 1.56051e-05 9.02094e-23 1.78244e-39)
(3.81189e-05 -4.79334e-06 -1.46129e-22 1.64588e-05 -6.77573e-23 1.59368e-39)
(3.94305e-05 -9.79386e-06 -7.07229e-23 1.80014e-05 -2.29461e-23 3.28967e-40)
(4.07447e-05 -1.4479e-05 1.45434e-22 1.99916e-05 2.73647e-23 1.38503e-39)
(4.14612e-05 -1.90537e-05 0 2.24189e-05 0 0)
(2.41928e-06 1.05782e-05 0 4.86721e-05 0 0)
(3.47582e-06 1.41376e-05 -4.46073e-23 6.0133e-05 -1.16532e-22 1.50096e-38)
(4.78994e-06 1.80791e-05 5.27963e-23 7.11177e-05 1.33411e-22 1.45088e-38)
(6.25805e-06 2.21631e-05 0 8.16667e-05 0 0)
(7.84659e-06 2.62616e-05 0 9.13917e-05 0 0)
(9.54573e-06 3.02771e-05 -1.30664e-24 9.98771e-05 -3.00101e-24 3.34393e-42)
(1.13526e-05 3.41167e-05 0 0.000106733 0 0)
(1.32521e-05 3.76703e-05 1.67874e-24 0.000111619 3.59005e-24 3.17863e-42)
(1.52885e-05 4.0951e-05 -2.95118e-23 0.00011447 -6.04267e-23 7.46229e-40)
(1.74218e-05 4.38339e-05 3.25663e-23 0.000115132 6.36382e-23 7.57551e-40)
(1.9668e-05 4.61758e-05 3.65652e-23 0.000113107 6.85753e-23 7.03136e-40)
(2.20028e-05 4.7944e-05 -3.8401e-23 0.000108748 -6.83544e-23 6.6667e-40)
(2.43706e-05 4.9062e-05 -1.27341e-24 0.000102361 -2.16864e-24 5.74096e-43)
(2.67233e-05 4.94756e-05 6.74209e-25 9.43217e-05 1.09907e-24 1.31375e-43)
(2.89914e-05 4.91299e-05 4.22989e-22 8.50887e-05 6.62192e-22 4.06609e-38)
(3.11031e-05 4.79854e-05 -4.41125e-22 7.5158e-05 -6.60156e-22 4.06589e-38)
(3.29992e-05 4.60269e-05 -7.49959e-25 6.50238e-05 -1.07603e-24 9.63395e-44)
(3.46456e-05 4.32698e-05 1.52184e-24 5.51449e-05 2.0853e-24 3.43325e-43)
(3.60402e-05 3.97629e-05 -4.86318e-23 4.59202e-05 -6.32624e-23 2.93194e-40)
(3.72139e-05 3.55882e-05 4.75447e-23 3.7672e-05 5.8437e-23 2.73081e-40)
(3.82224e-05 3.08529e-05 4.93917e-23 3.06331e-05 5.64537e-23 2.42973e-40)
(3.91302e-05 2.56772e-05 -4.78876e-23 2.49414e-05 -5.04982e-23 2.24918e-40)
(3.9995e-05 2.01877e-05 -2.9016e-24 2.06488e-05 -2.76533e-24 7.2092e-43)
(4.08619e-05 1.45143e-05 0 1.7732e-05 0 0)
(4.17613e-05 8.78335e-06 2.81433e-24 1.60978e-05 2.02284e-24 5.81872e-43)
(4.27066e-05 3.10963e-06 0 1.55946e-05 0 0)
(4.37053e-05 -2.40453e-06 0 1.6031e-05 0 0)
(4.47703e-05 -7.66638e-06 1.65821e-22 1.71932e-05 5.83388e-23 1.61285e-39)
(4.58543e-05 -1.26015e-05 -1.60531e-22 1.88614e-05 -3.69998e-23 1.47283e-39)
(4.59803e-05 -1.75399e-05 0 2.10846e-05 0 0)
(2.97812e-06 1.22644e-05 -3.9251e-23 5.27336e-05 -9.84646e-23 1.47628e-38)
(4.11737e-06 1.58525e-05 7.29648e-23 6.34719e-05 1.8579e-22 3.6379e-38)
(5.54142e-06 1.98185e-05 -2.88768e-23 7.3601e-05 -7.04502e-23 3.92458e-39)
(7.14737e-06 2.39281e-05 0 8.31694e-05 0 0)
(8.91639e-06 2.80728e-05 -4.02169e-23 9.18367e-05 -9.03001e-23 3.71996e-39)
(1.08536e-05 3.217e-05 4.48325e-23 9.92321e-05 9.57986e-23 3.57909e-39)
(1.29658e-05 3.61329e-05 -5.10419e-23 0.000105026 -1.04289e-22 3.31171e-39)
(1.52437e-05 3.9856e-05 5.90861e-23 0.000108949 1.14102e-22 3.59823e-39)
(1.77554e-05 4.33839e-05 0 0.000111063 0 0)
(2.04358e-05 4.65126e-05 2.27072e-24 0.000111043 3.95704e-24 3.09394e-42)
(2.33208e-05 4.91551e-05 -4.01584e-23 0.000108672 -6.6764e-23 7.19158e-40)
(2.6352e-05 5.12424e-05 2.1929e-23 0.000104293 3.42022e-23 1.96906e-40)
(2.9463e-05 5.26906e-05 3.02115e-24 9.81843e-05 4.3225e-24 4.72251e-42)
(3.2572e-05 5.34231e-05 2.42471e-23 9.06886e-05 3.46715e-23 1.45474e-40)
(3.5572e-05 5.33657e-05 5.78216e-22 8.22021e-05 7.96239e-22 6.22698e-38)
(3.83531e-05 5.24614e-05 -6.04628e-22 7.31386e-05 -7.96646e-22 6.22642e-38)
(4.08222e-05 5.06797e-05 2.88076e-23 6.39004e-05 3.65334e-23 1.09749e-40)
(4.29196e-05 4.80249e-05 -3.82274e-24 5.48576e-05 -4.65012e-24 3.25745e-42)
(4.46295e-05 4.454e-05 2.82484e-23 4.63349e-05 3.27207e-23 7.27344e-41)
(4.59809e-05 4.03064e-05 -5.75825e-23 3.8602e-05 -6.35262e-23 3.22905e-40)
(4.70376e-05 3.54364e-05 -3.55549e-24 3.18669e-05 -3.67927e-24 1.06136e-42)
(4.78818e-05 3.0062e-05 0 2.62695e-05 0 0)
(4.85945e-05 2.43245e-05 1.08787e-22 2.18836e-05 9.55264e-23 8.01402e-40)
(4.92451e-05 1.83678e-05 -1.11361e-22 1.872e-05 -8.80636e-23 8.34802e-40)
(4.98844e-05 1.23295e-05 1.07055e-22 1.67282e-05 7.38982e-23 6.75254e-40)
(5.05419e-05 6.33415e-06 -1.02812e-22 1.58036e-05 -6.06039e-23 6.18466e-40)
(5.12397e-05 4.9397e-07 -6.26324e-24 1.58001e-05 -2.99164e-24 2.09394e-42)
(5.20135e-05 -5.08651e-06 -9.59917e-23 1.65435e-05 -3.5883e-23 4.55582e-40)
(5.28264e-05 -1.03258e-05 2.78929e-22 1.78403e-05 7.37224e-23 3.66687e-39)
(5.23082e-05 -1.57212e-05 -1.94761e-22 1.97711e-05 -2.85994e-23 1.77278e-39)
(3.68785e-06 1.41595e-05 2.11305e-23 5.63798e-05 5.15563e-23 3.74075e-39)
(4.96937e-06 1.78299e-05 -2.80731e-23 6.62239e-05 -6.8213e-23 4.77565e-39)
(6.55618e-06 2.18481e-05 -3.39228e-23 7.53914e-05 -7.82943e-23 4.64785e-39)
(8.36297e-06 2.60135e-05 4.02629e-23 8.39022e-05 8.77424e-23 4.77442e-39)
(1.03881e-05 3.02354e-05 -4.44275e-23 9.14515e-05 -9.18366e-23 4.02584e-39)
(1.26506e-05 3.44399e-05 5.45477e-23 9.77213e-05 1.06001e-22 4.65458e-39)
(1.5166e-05 3.85429e-05 1.78651e-24 0.000102443 3.23862e-24 3.7938e-42)
(1.79393e-05 4.24534e-05 0 0.000105431 0 0)
(2.10483e-05 4.62177e-05 -3.71778e-23 0.000106805 -6.06554e-23 8.81476e-40)
(2.44194e-05 4.95837e-05 -2.56003e-24 0.000106148 -4.38141e-24 8.51518e-43)
(2.80903e-05 5.25087e-05 -2.78185e-24 0.000103504 -4.51723e-24 7.18806e-43)
(3.19757e-05 5.48966e-05 5.15092e-23 9.91689e-05 7.06219e-23 8.42794e-40)
(3.59901e-05 5.66574e-05 2.52168e-23 9.34026e-05 3.31716e-23 1.4775e-40)
(4.00124e-05 5.76991e-05 -4.31694e-23 8.65125e-05 -5.40733e-23 3.6994e-40)
(4.38927e-05 5.79327e-05 7.77544e-22 7.88334e-05 9.38712e-22 9.26469e-38)
(4.74776e-05 5.72859e-05 -7.82787e-22 7.06993e-05 -9.06483e-22 8.55786e-38)
(5.06349e-05 5.57132e-05 -4.88738e-23 6.24242e-05 -5.47019e-23 2.65026e-40)
(5.32765e-05 5.32052e-05 3.75225e-23 5.42923e-05 4.04584e-23 1.4225e-40)
(5.53713e-05 4.97945e-05 6.67972e-23 4.65544e-05 6.91615e-23 3.61746e-40)
(5.69468e-05 4.55562e-05 3.55851e-24 3.94263e-05 3.34757e-24 5.10257e-43)
(5.80774e-05 4.06023e-05 3.43578e-24 3.30857e-05 3.00468e-24 4.75788e-43)
(5.88652e-05 3.50707e-05 -6.59402e-23 2.76679e-05 -5.81484e-23 2.80729e-40)
(5.94176e-05 2.91132e-05 0 2.32618e-05 0 0)
(5.98312e-05 2.28856e-05 -3.99357e-24 1.99077e-05 -2.92808e-24 8.45442e-43)
(6.01815e-05 1.65374e-05 1.13911e-22 1.75947e-05 7.50031e-23 6.25347e-40)
(6.05174e-05 1.02044e-05 -1.19987e-22 1.62628e-05 -6.89793e-23 6.95572e-40)
(6.08777e-05 4.00991e-06 1.14603e-22 1.58118e-05 5.5415e-23 5.69223e-40)
(6.13202e-05 -1.92528e-06 -1.06227e-22 1.61088e-05 -4.16009e-23 4.87918e-40)
(6.18229e-05 -7.50778e-06 -1.02992e-22 1.69926e-05 -3.01957e-23 4.10771e-40)
(6.06132e-05 -1.34342e-05 1.1568e-22 1.85426e-05 2.19316e-23 5.28693e-40)
(4.61895e-06 1.6312e-05 0 5.94261e-05 0 0)
(6.11294e-06 2.01049e-05 -2.76681e-23 6.82315e-05 -6.27073e-23 3.91194e-39)
(7.92715e-06 2.41967e-05 4.00678e-23 7.63559e-05 8.49806e-23 5.81298e-39)
(1.00105e-05 2.84374e-05 -4.49651e-23 8.37483e-05 -8.95283e-23 4.99778e-39)
(1.23795e-05 3.27499e-05 4.95543e-23 9.01377e-05 9.19099e-23 4.54737e-39)
(1.50666e-05 3.70655e-05 -5.38824e-23 9.52642e-05 -9.37277e-23 3.75383e-39)
(1.80944e-05 4.12996e-05 6.16388e-23 9.89229e-05 9.94802e-23 3.85439e-39)
(2.15042e-05 4.54025e-05 4.62552e-24 0.000101028 6.97007e-24 1.61218e-41)
(2.53365e-05 4.93516e-05 2.61084e-24 0.000101656 3.69341e-24 3.87202e-42)
(2.95545e-05 5.29272e-05 2.9208e-24 0.000100446 3.88864e-24 3.68882e-42)
(3.41674e-05 5.60962e-05 3.27538e-24 9.76111e-05 4.13471e-24 3.49535e-42)
(3.90712e-05 5.87496e-05 -1.79126e-24 9.33921e-05 -2.14383e-24 8.16789e-43)
(4.41517e-05 6.07944e-05 3.27478e-23 8.80348e-05 3.74776e-23 2.09285e-40)
(4.92434e-05 6.21295e-05 -1.65539e-23 8.18108e-05 -1.79162e-23 5.08616e-41)
(5.4148e-05 6.26561e-05 9.60405e-22 7.49946e-05 1.01626e-21 1.16654e-37)
(5.86636e-05 6.22888e-05 -1.04351e-21 6.78438e-05 -1.06331e-21 1.25292e-37)
(6.26156e-05 6.09666e-05 -1.87411e-23 6.0589e-05 -1.86136e-23 2.81275e-41)
(6.5885e-05 5.86637e-05 3.38296e-23 5.34328e-05 3.24532e-23 9.60506e-41)
(6.84254e-05 5.53973e-05 -2.43897e-24 4.65546e-05 -2.26241e-24 4.1199e-43)
(7.02634e-05 5.12306e-05 -9.76227e-24 4.01153e-05 -8.71613e-24 5.85511e-42)
(7.14867e-05 4.62691e-05 -4.86219e-24 3.42593e-05 -4.14398e-24 1.30611e-42)
(7.222e-05 4.06503e-05 -4.80119e-24 2.91105e-05 -3.8703e-24 1.16198e-42)
(7.25998e-05 3.45317e-05 -9.42898e-24 2.47661e-05 -7.10183e-24 4.13697e-42)
(7.27533e-05 2.80779e-05 1.54865e-22 2.12903e-05 1.07521e-22 1.01183e-39)
(7.27837e-05 2.14494e-05 -1.52718e-22 1.87073e-05 -9.6383e-23 9.83808e-40)
(7.27622e-05 1.4793e-05 1.37792e-22 1.69984e-05 7.67892e-23 7.13663e-40)
(7.27488e-05 8.24419e-06 -1.27228e-22 1.61078e-05 -6.14517e-23 6.12054e-40)
(7.28239e-05 1.94164e-06 1.13284e-22 1.5945e-05 4.56229e-23 4.36694e-40)
(7.29799e-05 -4.00501e-06 -1.35435e-22 1.6385e-05 -4.3847e-23 6.25066e-40)
(7.10443e-05 -1.05143e-05 0 1.74759e-05 0 0)
(5.85881e-06 1.87527e-05 0 6.16981e-05 0 0)
(7.648e-06 2.26902e-05 -2.0595e-24 6.93463e-05 -4.21667e-24 1.91393e-41)
(9.76639e-06 2.68635e-05 3.50777e-23 7.63669e-05 6.70081e-23 3.68169e-39)
(1.2214e-05 3.11804e-05 -1.65068e-27 8.25972e-05 2.43693e-25 1.95126e-42)
(1.50272e-05 3.55752e-05 -5.56903e-23 8.78078e-05 -9.10312e-23 4.93723e-39)
(1.82513e-05 3.9982e-05 -4.07364e-24 9.17967e-05 -6.20366e-24 1.86477e-41)
(2.1915e-05 4.43148e-05 -4.58018e-24 9.44189e-05 -6.40304e-24 1.81446e-41)
(2.61098e-05 4.85823e-05 3.67909e-23 9.57104e-05 4.82606e-23 8.33837e-40)
(3.08108e-05 5.26542e-05 -5.06722e-23 9.56229e-05 -6.1811e-23 1.25937e-39)
(3.60384e-05 5.63936e-05 -4.59178e-26 9.39749e-05 -7.66209e-26 9.11177e-47)
(4.17543e-05 5.97496e-05 2.95742e-23 9.10285e-05 3.22755e-23 2.35048e-40)
(4.78423e-05 6.26222e-05 -3.24076e-23 8.70015e-05 -3.33043e-23 2.37878e-40)
(5.41487e-05 6.4917e-05 1.5372e-23 8.21213e-05 1.5287e-23 3.85832e-41)
(6.04588e-05 6.65298e-05 -1.88477e-23 7.662e-05 -1.79082e-23 5.1033e-41)
(6.65209e-05 6.73559e-05 1.2245e-21 7.07144e-05 1.13644e-21 1.59249e-37)
(7.20805e-05 6.72984e-05 -1.28406e-21 6.45904e-05 -1.15384e-21 1.59251e-37)
(7.69187e-05 6.62799e-05 -2.16356e-23 5.84013e-05 -1.90353e-23 3.44297e-41)
(8.08848e-05 6.42549e-05 2.49898e-23 5.22736e-05 2.14219e-23 4.30621e-41)
(8.39171e-05 6.12201e-05 -4.20216e-23 4.63192e-05 -3.50582e-23 9.65182e-41)
(8.60439e-05 5.72208e-05 5.64945e-23 4.06451e-05 4.57784e-23 1.68339e-40)
(8.73683e-05 5.23496e-05 -3.41824e-26 3.53594e-05 -1.82892e-26 4.875e-47)
(8.80411e-05 4.67377e-05 -8.82841e-23 3.05694e-05 -6.55707e-23 3.12474e-40)
(8.82306e-05 4.0543e-05 9.82577e-23 2.63743e-05 6.92867e-23 3.85051e-40)
(8.80972e-05 3.39357e-05 1.06959e-23 2.28558e-05 6.99285e-24 4.08544e-42)
(8.77749e-05 2.70852e-05 1.02907e-23 2.00673e-05 6.21966e-24 3.59214e-42)
(8.73603e-05 2.01481e-05 -1.59872e-22 1.80274e-05 -8.66723e-23 7.94938e-40)
(8.69371e-05 1.32736e-05 2.14427e-24 1.67212e-05 1.27468e-24 2.25507e-42)
(8.66115e-05 6.61722e-06 1.70797e-22 1.61015e-05 7.06351e-23 8.67972e-40)
(8.63889e-05 3.06497e-07 0 1.60809e-05 0 0)
(8.37113e-05 -6.8081e-06 0 1.66511e-05 0 0)
(7.51533e-06 2.14873e-05 0 6.30302e-05 0 0)
(9.69593e-06 2.5567e-05 4.01784e-23 6.94333e-05 7.33702e-23 5.90577e-39)
(1.22065e-05 2.98091e-05 4.60604e-26 7.53096e-05 2.91322e-25 1.8044e-42)
(1.5118e-05 3.41807e-05 -2.5174e-26 8.03603e-05 2.14512e-25 2.1685e-42)
(1.84888e-05 3.8627e-05 -1.21662e-22 8.43997e-05 -1.72102e-22 1.97375e-38)
(2.23755e-05 4.30833e-05 7.28026e-23 8.72868e-05 9.44934e-23 5.29963e-39)
(2.68196e-05 4.74718e-05 5.2536e-24 8.89403e-05 6.33672e-24 1.98208e-41)
(3.19353e-05 5.18261e-05 0 8.94789e-05 0 0)
(3.76712e-05 5.59561e-05 -5.05082e-23 8.87552e-05 -5.30459e-23 1.00737e-39)
(4.40708e-05 5.97926e-05 5.64281e-23 8.67825e-05 5.50694e-23 1.03089e-39)
(5.10549e-05 6.32741e-05 -3.34413e-23 8.38176e-05 -3.13009e-23 2.57765e-40)
(5.84881e-05 6.63156e-05 -7.61159e-26 8.00633e-05 -4.39267e-25 5.13421e-43)
(6.61712e-05 6.88271e-05 3.97574e-23 7.57253e-05 3.39015e-23 2.43069e-40)
(7.38351e-05 7.07072e-05 -1.33115e-24 7.09967e-05 -1.10682e-24 2.09336e-43)
(8.11706e-05 7.1848e-05 1.50088e-21 6.60385e-05 1.22402e-21 2.03516e-37)
(8.78683e-05 7.21421e-05 -1.57396e-21 6.09716e-05 -1.25123e-21 2.03703e-37)
(9.36632e-05 7.14939e-05 1.54222e-24 5.58792e-05 1.20787e-24 1.55361e-43)
(9.83741e-05 6.98342e-05 5.05726e-23 5.08189e-05 3.89413e-23 1.35469e-40)
(0.000101926 6.71341e-05 -1.42971e-25 4.58396e-05 -1.63044e-25 5.2186e-43)
(0.000104351 6.3415e-05 -6.46533e-23 4.09966e-05 -4.77572e-23 1.84869e-40)
(0.000105771 5.87503e-05 1.09043e-22 3.63601e-05 7.79803e-23 4.36749e-40)
(0.000106366 5.32594e-05 -1.02195e-22 3.20164e-05 -7.07042e-23 3.78832e-40)
(0.000106339 4.70954e-05 0 2.80608e-05 0 0)
(0.000105887 4.04304e-05 -1.21726e-23 2.45856e-05 -7.57739e-24 4.46308e-42)
(0.000105177 3.34405e-05 1.89804e-22 2.16675e-05 1.09367e-22 9.84097e-40)
(0.000104334 2.62911e-05 -3.82193e-22 1.93568e-05 -2.02247e-22 3.90349e-39)
(0.000103467 1.91449e-05 2.25227e-24 1.7676e-05 1.38453e-24 2.48245e-42)
(0.000102708 1.2174e-05 -8.77284e-24 1.6619e-05 -3.4151e-24 1.46401e-42)
(0.000102077 5.52231e-06 1.69203e-22 1.6138e-05 6.1212e-23 6.81167e-40)
(9.86626e-05 -2.18595e-06 0 1.61477e-05 0 0)
(9.71864e-06 2.44862e-05 4.45409e-24 6.32763e-05 7.60812e-24 9.37799e-41)
(1.23995e-05 2.86759e-05 0 6.83835e-05 0 0)
(1.54013e-05 3.29515e-05 3.24389e-24 7.30991e-05 4.6837e-24 2.25755e-41)
(1.88875e-05 3.73337e-05 -5.67297e-23 7.69821e-05 -7.45384e-23 4.96594e-39)
(2.29397e-05 4.17765e-05 7.06054e-23 7.98904e-05 8.42378e-23 5.84743e-39)
(2.76231e-05 4.62166e-05 -8.1926e-23 8.17429e-05 -9.024e-23 5.52087e-39)
(3.30031e-05 5.05999e-05 9.36663e-23 8.25283e-05 9.42419e-23 5.67352e-39)
(3.91821e-05 5.49426e-05 5.34485e-23 8.23783e-05 5.04861e-23 1.30816e-39)
(4.6121e-05 5.90532e-05 -1.28431e-22 8.11328e-05 -1.13161e-22 5.86403e-39)
(5.38518e-05 6.29107e-05 -4.41323e-24 7.89561e-05 -4.39693e-24 1.30502e-42)
(6.22637e-05 6.64534e-05 7.01903e-23 7.60708e-05 5.52852e-23 1.07429e-39)
(7.1192e-05 6.96147e-05 -4.1233e-23 7.26687e-05 -3.16939e-23 2.64452e-40)
(8.03865e-05 7.2316e-05 2.22124e-23 6.89319e-05 1.61867e-23 7.27056e-41)
(8.95193e-05 7.4463e-05 3.75053e-23 6.50145e-05 2.72001e-23 1.45734e-40)
(9.82206e-05 7.59465e-05 1.79235e-21 6.10271e-05 1.28724e-21 2.50699e-37)
(0.000106124 7.66482e-05 -1.90306e-21 5.70323e-05 -1.34296e-21 2.57666e-37)
(0.000112921 7.64515e-05 4.00499e-23 5.30519e-05 2.80889e-23 8.85797e-41)
(0.000118399 7.52594e-05 2.86456e-23 4.90823e-05 1.99062e-23 3.33709e-41)
(0.000122474 7.30119e-05 -5.82206e-23 4.51154e-05 -4.00157e-23 1.46911e-40)
(0.000125186 6.97005e-05 1.31741e-22 4.11572e-05 8.89622e-23 6.02711e-40)
(0.000126679 6.53738e-05 6.91873e-24 3.72398e-05 4.22859e-24 8.22239e-43)
(0.000127166 6.01337e-05 -2.17352e-22 3.34253e-05 -1.39853e-22 1.39257e-39)
(0.000126886 5.41244e-05 1.1448e-22 2.97988e-05 7.11345e-23 3.69627e-40)
(0.000126077 4.75164e-05 2.2262e-22 2.64573e-05 1.31066e-22 1.20996e-39)
(0.00012494 4.04895e-05 -2.18822e-22 2.3494e-05 -1.21983e-22 1.17667e-39)
(0.00012363 3.32176e-05 2.10456e-22 2.09851e-05 1.08469e-22 9.68315e-40)
(0.000122285 2.58751e-05 -2.19173e-22 1.89865e-05 -1.03732e-22 1.05634e-39)
(0.000121064 1.86514e-05 1.25023e-23 1.75292e-05 5.28185e-24 3.15184e-42)
(0.000119997 1.17043e-05 0 1.66038e-05 0 0)
(0.000115871 3.44978e-06 -2.45009e-23 1.60385e-05 -7.39093e-24 1.09654e-41)
(1.26217e-05 2.76764e-05 -5.1915e-24 6.23207e-05 -7.72697e-24 1.01421e-40)
(1.59228e-05 3.19128e-05 5.16336e-23 6.6123e-05 6.87859e-23 6.96299e-39)
(1.95242e-05 3.61629e-05 -5.79201e-23 6.96943e-05 -6.95021e-23 6.40195e-39)
(2.37042e-05 4.04878e-05 -4.29635e-24 7.24538e-05 -4.72354e-24 2.45039e-41)