/*--------------------------------*- C++ -*----------------------------------*\
  =========                 |
  \\      /  F ield         | OpenFOAM: The Open Source CFD Toolbox
   \\    /   O peration     | Website:  https://openfoam.org
    \\  /    A nd           | Version:  12
     \\/     M anipulation  |
\*---------------------------------------------------------------------------*/
FoamFile
{
    format      ascii;
    class       volScalarField;
    location    "40";
    object      p;
}
// * * * * * * * * * * * * * * * * * * * * * * * * * * * * * * * * * * * * * //

dimensions      [0 2 -2 0 0 0 0];

internalField   nonuniform List<scalar> 
6750
(
-0.0349477
-0.034977
-0.0350323
-0.0352219
-0.0361843
-0.0330487
-0.0330678
-0.033173
-0.033419
-0.0337445
-0.0309145
-0.0309588
-0.0310708
-0.0312504
-0.0313742
-0.0287324
-0.0288165
-0.0289264
-0.0290504
-0.0291015
-0.0265949
-0.0267281
-0.0268514
-0.0269492
-0.0269644
-0.0245818
-0.0247685
-0.024916
-0.0250051
-0.0250043
-0.0227413
-0.0229825
-0.0231577
-0.023245
-0.0232368
-0.0211019
-0.0213964
-0.021599
-0.0216863
-0.0216737
-0.0196806
-0.0200254
-0.020253
-0.0203402
-0.0203247
-0.0184863
-0.018877
-0.019126
-0.0192123
-0.0191948
-0.0175205
-0.0179511
-0.0182172
-0.0183019
-0.0182831
-0.016778
-0.0172418
-0.0175202
-0.0176027
-0.0175832
-0.0162475
-0.0167377
-0.0170229
-0.0171031
-0.0170836
-0.0159125
-0.0164229
-0.016708
-0.0167871
-0.0167686
-0.0157581
-0.0162747
-0.0165542
-0.0166358
-0.0166196
-0.0157567
-0.0162732
-0.0165527
-0.0166343
-0.016618
-0.0159083
-0.0164186
-0.0167036
-0.0167824
-0.0167638
-0.0162403
-0.0167304
-0.0170153
-0.0170953
-0.0170756
-0.0167679
-0.0172314
-0.0175095
-0.0175917
-0.0175719
-0.0175073
-0.0179377
-0.0182035
-0.0182877
-0.0182685
-0.0184702
-0.0188606
-0.0191092
-0.0191949
-0.019177
-0.0196616
-0.0200062
-0.0202333
-0.0203198
-0.0203038
-0.0210802
-0.0213743
-0.0215764
-0.021663
-0.0216499
-0.0227171
-0.0229579
-0.0231325
-0.0232192
-0.0232103
-0.0245553
-0.0247416
-0.0248885
-0.024977
-0.0249756
-0.0265665
-0.0266994
-0.0268221
-0.0269192
-0.0269338
-0.0287024
-0.0287862
-0.0288956
-0.029019
-0.0290695
-0.0308834
-0.0309274
-0.031039
-0.0312181
-0.0313416
-0.0330167
-0.0330357
-0.0331406
-0.0333863
-0.0337117
-0.0349152
-0.0349444
-0.0349996
-0.0351891
-0.0361518
-0.041897
-0.0413189
-0.0399164
-0.0388825
-0.0381275
-0.0375121
-0.0369999
-0.0365527
-0.0361583
-0.0358438
-0.0355206
-0.0351961
-0.0348734
-0.0345506
-0.0342311
-0.0339207
-0.0336256
-0.0333516
-0.033103
-0.0328647
-0.032637
-0.0324145
-0.0321873
-0.0319468
-0.0316863
-0.0314022
-0.03109
-0.0307266
-0.0303145
-0.0301681
-0.0381224
-0.0373882
-0.0366249
-0.0362327
-0.0359852
-0.0357955
-0.0356528
-0.0355242
-0.0354201
-0.0353719
-0.0352601
-0.0351091
-0.0349137
-0.0346675
-0.0343742
-0.0340445
-0.0336941
-0.03334
-0.0329948
-0.0326843
-0.0324086
-0.0321687
-0.0319638
-0.031789
-0.0316371
-0.0315018
-0.0313774
-0.0312409
-0.0310302
-0.0308535
-0.0355892
-0.0353953
-0.0350577
-0.0348732
-0.0347447
-0.0346546
-0.0346051
-0.0345738
-0.0345897
-0.0346534
-0.0346692
-0.0346686
-0.0346397
-0.0345717
-0.0344612
-0.0343097
-0.0341232
-0.0339113
-0.0336843
-0.0334504
-0.0332182
-0.0329951
-0.0327844
-0.0325872
-0.0324024
-0.0322288
-0.0320689
-0.0319118
-0.0316877
-0.031435
-0.0340071
-0.0341576
-0.0339708
-0.0338346
-0.0337506
-0.0337139
-0.0337207
-0.0337583
-0.0338637
-0.0340059
-0.0341316
-0.0342634
-0.034386
-0.0344858
-0.0345532
-0.0345812
-0.0345667
-0.0345095
-0.0344122
-0.0342781
-0.0341134
-0.0339254
-0.0337206
-0.0335044
-0.0332812
-0.0330552
-0.0328345
-0.0326162
-0.0323239
-0.0319387
-0.0327496
-0.0330078
-0.0328826
-0.0328
-0.0327814
-0.0328149
-0.0328928
-0.0330134
-0.0332142
-0.0334432
-0.033683
-0.033942
-0.0342033
-0.0344507
-0.0346702
-0.0348493
-0.0349784
-0.0350505
-0.0350634
-0.0350182
-0.0349188
-0.034772
-0.0345857
-0.0343685
-0.0341282
-0.0338728
-0.0336149
-0.0333569
-0.0330051
-0.0324609
-0.0316185
-0.0318886
-0.0318131
-0.0317962
-0.031849
-0.0319557
-0.0321094
-0.0323204
-0.0326162
-0.0329404
-0.0332951
-0.0336781
-0.0340706
-0.0344546
-0.0348118
-0.0351257
-0.0353817
-0.0355692
-0.0356824
-0.0357199
-0.0356845
-0.0355826
-0.0354232
-0.0352164
-0.0349722
-0.0347014
-0.0344208
-0.034137
-0.0337366
-0.0330299
-0.0305808
-0.0308275
-0.0307987
-0.0308466
-0.0309668
-0.0311437
-0.0313754
-0.0316794
-0.0320634
-0.0324869
-0.032955
-0.0334582
-0.0339766
-0.0344896
-0.034976
-0.0354155
-0.0357899
-0.0360858
-0.0362942
-0.036412
-0.0364409
-0.0363871
-0.0362598
-0.0360704
-0.0358304
-0.0355524
-0.0352572
-0.0349547
-0.0345118
-0.0336471
-0.0296188
-0.0298218
-0.0298357
-0.0299455
-0.0301305
-0.0303772
-0.0306894
-0.0310843
-0.0315546
-0.0320795
-0.032659
-0.0332787
-0.0339179
-0.0345538
-0.0351625
-0.0357205
-0.0362069
-0.0366054
-0.0369052
-0.0371013
-0.0371947
-0.0371912
-0.0371002
-0.0369337
-0.0367043
-0.0364263
-0.0361236
-0.0358087
-0.0353274
-0.034311
-0.0287137
-0.028861
-0.028914
-0.0290849
-0.0293346
-0.0296524
-0.0300462
-0.0305285
-0.0310879
-0.0317148
-0.0324033
-0.0331365
-0.0338925
-0.0346463
-0.0353714
-0.0360421
-0.036635
-0.0371316
-0.0375194
-0.0377922
-0.0379501
-0.0379985
-0.0379471
-0.0378082
-0.0375951
-0.0373233
-0.03702
-0.0366989
-0.0361828
-0.035021
-0.0278519
-0.0279368
-0.0280269
-0.0282589
-0.0285746
-0.0289649
-0.0294403
-0.0300081
-0.0306596
-0.0313884
-0.0321841
-0.0330285
-0.0338979
-0.0347656
-0.0356028
-0.0363817
-0.0370769
-0.0376682
-0.0381416
-0.0384898
-0.0387123
-0.0388142
-0.0388051
-0.0386977
-0.0385058
-0.0382458
-0.037948
-0.0376264
-0.0370784
-0.0357771
-0.0270241
-0.0270427
-0.0271681
-0.0274622
-0.0278452
-0.0283093
-0.0288661
-0.02952
-0.0302657
-0.0310959
-0.0319978
-0.0329514
-0.0339319
-0.0349105
-0.0358567
-0.0367405
-0.037535
-0.0382186
-0.038776
-0.0391991
-0.0394867
-0.0396435
-0.0396794
-0.039607
-0.0394405
-0.0391973
-0.0389105
-0.0385937
-0.0380162
-0.0365803
-0.0262228
-0.0261721
-0.026331
-0.0266885
-0.0271407
-0.0276798
-0.0283185
-0.0290606
-0.0299018
-0.0308333
-0.0318407
-0.0329026
-0.0339925
-0.03508
-0.0361329
-0.0371196
-0.0380117
-0.0387862
-0.0394269
-0.0399249
-0.0402783
-0.0404919
-0.0405752
-0.0405411
-0.0404039
-0.0401819
-0.0399114
-0.0396042
-0.0389992
-0.0374335
-0.0254414
-0.025318
-0.0255084
-0.0259311
-0.0264549
-0.0270707
-0.027793
-0.0286254
-0.0295632
-0.0305965
-0.0317093
-0.0328791
-0.0340777
-0.0352732
-0.0364317
-0.0375201
-0.0385089
-0.039374
-0.0400981
-0.0406716
-0.0410924
-0.0413648
-0.0414982
-0.0415056
-0.0414014
-0.0412049
-0.0409554
-0.0406624
-0.0400319
-0.0383412
-0.0246729
-0.0244725
-0.0246927
-0.025183
-0.0257811
-0.026476
-0.0272841
-0.0282089
-0.029245
-0.0303813
-0.0316005
-0.0328785
-0.034186
-0.0354893
-0.0367532
-0.0379434
-0.0390291
-0.0399852
-0.0407937
-0.0414443
-0.0419343
-0.0422679
-0.0424543
-0.0425066
-0.0424391
-0.0422723
-0.0420487
-0.041774
-0.0411201
-0.03931
-0.0239097
-0.023627
-0.0238753
-0.024436
-0.0251121
-0.0258891
-0.0267859
-0.0278058
-0.0289424
-0.0301836
-0.0315106
-0.0328983
-0.0343156
-0.0357277
-0.037098
-0.038391
-0.0395748
-0.0406234
-0.041518
-0.0422479
-0.0428098
-0.0432075
-0.0434503
-0.043551
-0.0435242
-0.0433914
-0.0431982
-0.0429461
-0.0422709
-0.0403486
-0.0231426
-0.0227718
-0.0230465
-0.0236813
-0.0244393
-0.0253025
-0.0262916
-0.0274099
-0.0286501
-0.029999
-0.0314364
-0.032936
-0.0344654
-0.0359883
-0.037467
-0.0388648
-0.040149
-0.0412926
-0.0422762
-0.0430884
-0.0437254
-0.0441908
-0.0444938
-0.044647
-0.044665
-0.0445708
-0.0444129
-0.0441873
-0.0434934
-0.0414676
-0.0223607
-0.0218954
-0.0221954
-0.0229082
-0.0237533
-0.0247078
-0.0257936
-0.0270146
-0.0283626
-0.0298229
-0.0313745
-0.0329895
-0.0346342
-0.0362712
-0.0378616
-0.0393676
-0.0407555
-0.0419978
-0.0430741
-0.0439725
-0.0446888
-0.0452262
-0.0455936
-0.0458038
-0.0458714
-0.0458206
-0.0457031
-0.0455082
-0.0447988
-0.0426803
-0.0215502
-0.0209841
-0.0213082
-0.0221036
-0.0230434
-0.0240957
-0.0252836
-0.0266126
-0.0280736
-0.0296507
-0.0313214
-0.0330567
-0.0348216
-0.0365774
-0.038284
-0.0399029
-0.0413993
-0.0427449
-0.0439187
-0.0449083
-0.0457089
-0.0463234
-0.0467606
-0.047033
-0.0471553
-0.0471535
-0.0470818
-0.0469222
-0.046201
-0.0440024
-0.0206964
-0.0200174
-0.0203658
-0.0212535
-0.0222981
-0.0234543
-0.0247512
-0.0261953
-0.0277764
-0.0294771
-0.0312738
-0.033136
-0.0350275
-0.0369084
-0.0387376
-0.0404754
-0.0420864
-0.0435414
-0.0448188
-0.0459056
-0.0467967
-0.0474945
-0.0480076
-0.0483483
-0.0485316
-0.0485849
-0.0485652
-0.0484457
-0.0477175
-0.0454531
-0.0197772
-0.0189689
-0.0193437
-0.0203435
-0.0215018
-0.0227698
-0.0241846
-0.025753
-0.0274634
-0.0292969
-0.0312284
-0.0332262
-0.0352529
-0.0372673
-0.039227
-0.0410917
-0.0428249
-0.0443968
-0.0457854
-0.0469769
-0.047966
-0.0487546
-0.0493511
-0.0497673
-0.0500186
-0.0501342
-0.0501732
-0.0500994
-0.04937
-0.0470559
-0.0187453
-0.0178305
-0.0182356
-0.0193498
-0.020631
-0.022024
-0.0235694
-0.0252744
-0.0271262
-0.0291043
-0.0311824
-0.0333272
-0.0355001
-0.0376585
-0.0397591
-0.0417605
-0.0436255
-0.0453237
-0.0468326
-0.0481381
-0.0492343
-0.0501229
-0.0508116
-0.0513121
-0.0516397
-0.0518256
-0.0519311
-0.0519094
-0.0511861
-0.0488402
-0.0175737
-0.0165589
-0.0170097
-0.0182436
-0.0196622
-0.021197
-0.0228891
-0.0247466
-0.0267554
-0.0288937
-0.0311335
-0.0334401
-0.0357732
-0.0380893
-0.0403437
-0.0424941
-0.0445028
-0.0463388
-0.0479793
-0.0494099
-0.0506244
-0.051624
-0.052416
-0.0530112
-0.0534251
-0.0536907
-0.053871
-0.0539087
-0.0532007
-0.0508423
-0.0162102
-0.0151088
-0.0156159
-0.0169842
-0.0185636
-0.0202625
-0.0221227
-0.0241538
-0.0263407
-0.0286596
-0.0310808
-0.0335681
-0.0360796
-0.0385705
-0.0409951
-0.04331
-0.0454771
-0.0474651
-0.0492509
-0.0508201
-0.0521664
-0.0532906
-0.0541992
-0.0549023
-0.0554147
-0.055771
-0.0560353
-0.0561398
-0.0554569
-0.0531066
-0.01458
-0.0134093
-0.0139891
-0.015524
-0.0172952
-0.0191876
-0.0212448
-0.0234779
-0.0258706
-0.0283971
-0.0310256
-0.0337182
-0.0364316
-0.0391194
-0.0417348
-0.0442339
-0.0465778
-0.0487352
-0.050683
-0.0524072
-0.0539014
-0.0551665
-0.0562083
-0.0570358
-0.0576625
-0.0581235
-0.0584826
-0.0586613
-0.0580115
-0.0556869
-0.01257
-0.011365
-0.0120551
-0.0138002
-0.0158041
-0.01793
-0.0202236
-0.0226974
-0.0253334
-0.0281036
-0.030974
-0.0339047
-0.0368507
-0.0397641
-0.0425972
-0.0453054
-0.0478496
-0.0501985
-0.0523294
-0.0542287
-0.0558908
-0.0573168
-0.0585124
-0.0594853
-0.0602477
-0.0608335
-0.0613035
-0.0615667
-0.0609555
-0.0586662
-0.0100212
-0.00884916
-0.00971285
-0.011726
-0.0140192
-0.016435
-0.0190202
-0.0217886
-0.0247201
-0.0277838
-0.0309432
-0.0341562
-0.0373759
-0.0405531
-0.0436395
-0.0465901
-0.0493658
-0.0519356
-0.0542778
-0.0563796
-0.0582354
-0.0598482
-0.0612241
-0.0623705
-0.0632986
-0.0640405
-0.0646519
-0.0650258
-0.0644739
-0.0622376
-0.00668494
-0.00566275
-0.00680127
-0.00917014
-0.0118368
-0.0146258
-0.0175842
-0.0207256
-0.0240274
-0.0274551
-0.0309693
-0.0345252
-0.0380745
-0.041567
-0.0449543
-0.0481918
-0.0512414
-0.0540729
-0.0566656
-0.0590071
-0.0610949
-0.0629313
-0.0645238
-0.0658812
-0.067016
-0.0679606
-0.0687664
-0.0693135
-0.0689113
-0.0668224
-0.00216421
-0.00150579
-0.00309259
-0.00595038
-0.00911252
-0.0123947
-0.015843
-0.0194689
-0.0232459
-0.0271351
-0.0310932
-0.0350731
-0.0390246
-0.0428976
-0.0466446
-0.0502226
-0.0535956
-0.0567353
-0.0596221
-0.0622454
-0.0646023
-0.0666963
-0.0685363
-0.0701334
-0.0715034
-0.0726845
-0.0737308
-0.0745266
-0.0744433
-0.0727218
0.00449122
0.00441252
0.00209589
-0.00144546
-0.00529664
-0.00928538
-0.0134457
-0.0177755
-0.0222368
-0.0267815
-0.0313591
-0.0359179
-0.0404063
-0.0447749
-0.0489787
-0.0529784
-0.0567417
-0.0602425
-0.0634624
-0.0663962
-0.0690419
-0.071397
-0.0734705
-0.0752753
-0.0768306
-0.0781792
-0.0793811
-0.0803522
-0.080587
-0.0793798
0.0159989
0.0142558
0.0104166
0.005683
0.000702771
-0.00443036
-0.00972287
-0.0151424
-0.0206335
-0.0261376
-0.0315988
-0.0369645
-0.0421869
-0.047224
-0.0520398
-0.0566047
-0.0608955
-0.0648949
-0.0685912
-0.0719696
-0.0750253
-0.0777668
-0.080199
-0.0823302
-0.084175
-0.0857636
-0.0871472
-0.0883079
-0.0889219
-0.0883544
-0.0384188
-0.0372921
-0.0354014
-0.033858
-0.0325284
-0.0312751
-0.0300689
-0.0289028
-0.0277681
-0.0266552
-0.0255552
-0.0244591
-0.0233573
-0.02224
-0.021096
-0.0199136
-0.0186795
-0.0173787
-0.0159937
-0.0145007
-0.0128672
-0.0110566
-0.00902129
-0.00669258
-0.00397225
-0.000729095
0.00321929
0.00809798
0.014196
0.022107
-0.0338134
-0.0326692
-0.0313913
-0.030305
-0.0293174
-0.0283659
-0.0274392
-0.0265326
-0.025639
-0.0247504
-0.0238594
-0.0229585
-0.0220401
-0.0210958
-0.020116
-0.0190898
-0.018004
-0.0168426
-0.0155849
-0.0142042
-0.0126654
-0.0109248
-0.00892348
-0.00657909
-0.00377596
-0.000353074
0.00392517
0.00939291
0.0165888
0.0261307
-0.0312013
-0.0301852
-0.0291993
-0.0283081
-0.0274379
-0.0265704
-0.0257083
-0.0248509
-0.0239933
-0.0231302
-0.0222556
-0.0213633
-0.0204465
-0.0194972
-0.0185061
-0.0174623
-0.0163523
-0.0151592
-0.0138611
-0.0124298
-0.0108283
-0.00900909
-0.00690696
-0.00443144
-0.00145557
0.00220031
0.00680255
0.0127385
0.0207012
0.0313905
-0.028914
-0.0280215
-0.0271638
-0.0263649
-0.0255711
-0.024771
-0.0239654
-0.0231516
-0.0223246
-0.0214792
-0.0206098
-0.0197102
-0.0187738
-0.0177924
-0.0167568
-0.0156556
-0.0144746
-0.0131962
-0.0117975
-0.010249
-0.00851215
-0.00653658
-0.0042535
-0.00156788
0.00165338
0.00559907
0.0105476
0.016899
0.0254308
0.0368796
-0.0267877
-0.0260027
-0.0252484
-0.0245335
-0.0238122
-0.023073
-0.0223155
-0.0215368
-0.0207327
-0.0198985
-0.019029
-0.0181184
-0.01716
-0.0161458
-0.015066
-0.0139089
-0.0126594
-0.011299
-0.00980368
-0.00814245
-0.00627515
-0.00414868
-0.00169124
0.00119584
0.00465033
0.00886732
0.0141328
0.0208541
0.0298888
0.0420278
-0.0248522
-0.0241638
-0.023499
-0.0228558
-0.0221931
-0.0215011
-0.0207793
-0.0200255
-0.0192359
-0.0184063
-0.017532
-0.0166074
-0.0156258
-0.0145791
-0.0134574
-0.0122485
-0.010937
-0.00950345
-0.00792286
-0.00616319
-0.00418267
-0.00192612
0.000680769
0.00373978
0.00739272
0.0118401
0.0173751
0.0244157
0.0338992
0.0467006
-0.0231112
-0.0225096
-0.0219215
-0.0213376
-0.020722
-0.0200667
-0.0193716
-0.018635
-0.0178537
-0.0170238
-0.016141
-0.0151998
-0.0141937
-0.0131146
-0.0119524
-0.0106948
-0.00932582
-0.00782549
-0.00616821
-0.00432096
-0.00224079
0.000129084
0.00286491
0.00607098
0.00989246
0.0145344
0.0202966
0.0276084
0.0374743
0.0508696
-0.0215688
-0.0210451
-0.0205229
-0.0199882
-0.0194103
-0.0187835
-0.0181083
-0.0173833
-0.0166058
-0.0157723
-0.0148788
-0.0139202
-0.0128898
-0.0117798
-0.01058
-0.00927756
-0.00785653
-0.0062964
-0.00457101
-0.00264665
-0.000479411
0.00198868
0.00483541
0.00816708
0.0121316
0.0169377
0.0228908
0.0304302
0.0406083
0.0545112
-0.0202322
-0.0197779
-0.0193118
-0.018817
-0.018269
-0.0176642
-0.0170034
-0.0162858
-0.015509
-0.0146702
-0.0137655
-0.0127898
-0.011737
-0.0105988
-0.00936526
-0.00802336
-0.0065568
-0.0049448
-0.00316078
-0.00117045
0.00107083
0.00362197
0.00656195
0.00999873
0.0140825
0.0190248
0.0251355
0.0328621
0.0432862
0.0576122
-0.0191069
-0.0187132
-0.0182935
-0.0178305
-0.0173056
-0.0167172
-0.0160668
-0.0153535
-0.0145758
-0.013731
-0.0128154
-0.0118244
-0.0107516
-0.00958905
-0.00832654
-0.00695106
-0.00544612
-0.00379069
-0.00195784
8.71277e-05
0.00238942
0.00500867
0.00802482
0.0115471
0.0157277
0.0207803
0.0270179
0.0348945
0.0455043
0.0601775
-0.018194
-0.0178514
-0.0174688
-0.0170302
-0.0165227
-0.0159465
-0.0153032
-0.0145924
-0.0138128
-0.0129622
-0.012037
-0.0110328
-0.00994328
-0.00876052
-0.00747425
-0.00607142
-0.0045354
-0.00284497
-0.000972974
0.00111563
0.00346645
0.00613965
0.00921592
0.0128055
0.0170622
0.0222014
0.0285379
0.0365307
0.0472738
0.0622278
-0.0174896
-0.0171879
-0.0168336
-0.0164129
-0.0159181
-0.0153505
-0.0147119
-0.0140024
-0.0132208
-0.0123651
-0.0114321
-0.0104172
-0.0093145
-0.00811589
-0.00681115
-0.00538716
-0.0038272
-0.00210992
-0.000207995
0.00191385
0.00430154
0.00701561
0.0101373
0.0137777
0.0180916
0.0232959
0.0297063
0.0377851
0.0486172
0.0637941
-0.0169845
-0.0167132
-0.0163789
-0.0159706
-0.0154844
-0.0149226
-0.0142871
-0.013578
-0.0127946
-0.0119349
-0.010996
-0.00997338
-0.00886097
-0.00765086
-0.00633277
-0.00489355
-0.00331641
-0.00157992
0.000343382
0.00248892
0.00490281
0.00764587
0.0107997
0.0144759
0.0188304
0.0240806
0.0305427
0.0386811
0.0495654
0.0649153
-0.0166652
-0.0164136
-0.0160918
-0.0156911
-0.0152102
-0.0146519
-0.014018
-0.013309
-0.0125243
-0.011662
-0.0107191
-0.00969141
-0.00857274
-0.00735523
-0.00602858
-0.00457961
-0.0029915
-0.00124276
0.000694157
0.00285476
0.0052853
0.00804674
0.0112209
0.0149198
0.0192999
0.0245791
0.0310736
0.0392483
0.0501558
0.0656337
-0.0165144
-0.0162723
-0.0159566
-0.0155594
-0.0150809
-0.0145241
-0.013891
-0.013182
-0.0123965
-0.0115328
-0.0105881
-0.00955782
-0.00843611
-0.00721499
-0.0058842
-0.00443051
-0.00283708
-0.0010824
0.000861122
0.00302904
0.00546766
0.00823802
0.011422
0.0151319
0.0195244
0.0248176
0.0313275
0.0395189
0.050431
0.0659848
-0.0165128
-0.0162708
-0.0159552
-0.015558
-0.0150796
-0.0145229
-0.0138897
-0.0131807
-0.0123953
-0.0115316
-0.0105868
-0.00955657
-0.00843484
-0.00721371
-0.00588288
-0.00442914
-0.00283564
-0.00108084
0.000862818
0.00303091
0.00546973
0.00824032
0.0114246
0.0151347
0.0195276
0.024821
0.0313309
0.039522
0.0504348
0.0659905
-0.0166604
-0.016409
-0.0160875
-0.015687
-0.0152062
-0.014648
-0.0140142
-0.0133053
-0.0125206
-0.0116583
-0.0107154
-0.00968766
-0.00856895
-0.00735138
-0.00602463
-0.00457551
-0.00298718
-0.00123812
0.000699198
0.0028603
0.00529143
0.00805356
0.0112284
0.0149282
0.0193092
0.0245891
0.0310836
0.0392577
0.050167
0.0656504
-0.0169765
-0.0167056
-0.0163717
-0.0159637
-0.0154778
-0.0149162
-0.0142808
-0.0135718
-0.0127884
-0.0119288
-0.0109898
-0.00996716
-0.0088547
-0.00764449
-0.00632625
-0.00488679
-0.0033093
-0.00157232
0.000351621
0.00249795
0.00491278
0.00765691
0.0108119
0.0144894
0.0188452
0.0240965
0.0305587
0.0386961
0.0495833
0.0649422
-0.0174783
-0.0171773
-0.0168234
-0.0164032
-0.0159088
-0.0153415
-0.0147032
-0.0139937
-0.0132122
-0.0123565
-0.0114235
-0.0104086
-0.00930583
-0.00810711
-0.00680217
-0.00537786
-0.00381744
-0.00209954
-0.00019678
0.0019261
0.00431502
0.00703052
0.0101538
0.0137959
0.0181116
0.0233173
0.0297277
0.0378053
0.0486414
0.0638304
-0.0181795
-0.0178377
-0.0174558
-0.0170178
-0.0165108
-0.015935
-0.015292
-0.0145814
-0.0138019
-0.0129513
-0.0120262
-0.0110219
-0.00993237
-0.00874946
-0.00746296
-0.00605976
-0.0045232
-0.00283203
-0.000959052
0.00113078
0.00348309
0.00615803
0.00923624
0.012828
0.0170868
0.0222277
0.0285643
0.0365559
0.0473042
0.0622732
-0.0190892
-0.0186965
-0.0182776
-0.0178153
-0.0172911
-0.0167033
-0.0160532
-0.0153402
-0.0145627
-0.013718
-0.0128025
-0.0118114
-0.0107386
-0.00957589
-0.00831312
-0.00693724
-0.0054317
-0.00377545
-0.00194153
0.000104816
0.0024088
0.00503004
0.00804845
0.0115732
0.0157563
0.020811
0.0270488
0.0349245
0.0455408
0.0602321
-0.0202115
-0.0197583
-0.0192931
-0.0187993
-0.018252
-0.0176478
-0.0169875
-0.0162702
-0.0154937
-0.0146551
-0.0137504
-0.0127749
-0.011722
-0.0105837
-0.00934989
-0.00800757
-0.0065404
-0.00492755
-0.0031424
-0.00115061
0.00109248
0.0036458
0.00658832
0.0100279
0.0141146
0.0190593
0.0251705
0.0328969
0.0433291
0.0576761
-0.0215453
-0.0210227
-0.0205016
-0.0199679
-0.0193908
-0.0187647
-0.0180901
-0.0173655
-0.0165883
-0.0157551
-0.0148618
-0.0139032
-0.0128729
-0.0117628
-0.0105628
-0.00925998
-0.00783835
-0.00627739
-0.00455089
-0.00262506
-0.000455945
0.00201445
0.0048639
0.00819866
0.0121664
0.0169753
0.0229294
0.0304696
0.0406578
0.0545849
-0.0230851
-0.0224846
-0.0218977
-0.0213149
-0.0207001
-0.0200456
-0.0193511
-0.018615
-0.0178341
-0.0170045
-0.016122
-0.0151809
-0.0141749
-0.0130958
-0.0119335
-0.0106755
-0.00930605
-0.00780496
-0.00614662
-0.00429796
-0.00221594
0.000156259
0.00289491
0.00610426
0.0099293
0.0145744
0.0203385
0.0276524
0.0375308
0.0509536
-0.0248238
-0.0241366
-0.023473
-0.0228308
-0.022169
-0.0214778
-0.0207566
-0.0200033
-0.0192141
-0.018385
-0.017511
-0.0165866
-0.0156052
-0.0145585
-0.0134368
-0.0122277
-0.0109158
-0.00948157
-0.00790005
-0.00613908
-0.00415682
-0.00189801
0.000711699
0.0037741
0.00743087
0.0118819
0.0174197
0.024464
0.033963
0.0467955
-0.0267574
-0.0259736
-0.0252204
-0.0245065
-0.023786
-0.0230476
-0.0222907
-0.0215126
-0.0207089
-0.0198751
-0.019006
-0.0180957
-0.0171376
-0.0161235
-0.0150438
-0.0138865
-0.0126368
-0.0112759
-0.00977979
-0.00811745
-0.0062486
-0.00412003
-0.00165987
0.00123063
0.00468919
0.00891043
0.0141797
0.0209068
0.0299601
0.0421345
-0.0288824
-0.0279909
-0.0271342
-0.0263362
-0.0255431
-0.0247436
-0.0239386
-0.0231254
-0.022299
-0.021454
-0.020585
-0.0196858
-0.0187496
-0.0177684
-0.016733
-0.0156318
-0.0144507
-0.013172
-0.0117727
-0.0102232
-0.00848512
-0.00650771
-0.00422208
-0.00153306
0.0016925
0.00564307
0.0105967
0.0169559
0.0255099
0.0369989
-0.0311689
-0.0301536
-0.0291684
-0.0282779
-0.0274085
-0.0265415
-0.02568
-0.0248231
-0.0239661
-0.0231034
-0.0222292
-0.0213373
-0.0204207
-0.0194717
-0.0184808
-0.0174372
-0.0163272
-0.0151339
-0.0138355
-0.0124035
-0.010801
-0.00898023
-0.0068758
-0.00439692
-0.00141646
0.00224506
0.00685365
0.0127996
0.0207882
0.0315229
-0.0337809
-0.0326371
-0.0313598
-0.0302742
-0.0292871
-0.0283362
-0.02741
-0.026504
-0.0256107
-0.0247225
-0.0238318
-0.0229312
-0.022013
-0.0210689
-0.0200893
-0.0190633
-0.0179776
-0.0168161
-0.0155584
-0.0141773
-0.0126377
-0.0108959
-0.00889253
-0.00654484
-0.00373675
-0.000307362
0.00397833
0.00945732
0.0166818
0.0262751
-0.0383865
-0.03726
-0.0353701
-0.0338273
-0.0324982
-0.0312454
-0.0300395
-0.0288737
-0.0277393
-0.0266266
-0.0255267
-0.0244307
-0.0233291
-0.0222117
-0.0210679
-0.0198855
-0.0186515
-0.0173507
-0.0159656
-0.0144724
-0.0128383
-0.0110266
-0.00898945
-0.0066574
-0.00393159
-0.000680787
0.00327608
0.00816633
0.0142953
0.0222666
0.0161783
0.0144588
0.0106446
0.00593221
0.000969249
-0.00414999
-0.00943196
-0.0148438
-0.0203295
-0.0258301
-0.0312893
-0.0366541
-0.0418766
-0.0469141
-0.0517308
-0.0562967
-0.0605884
-0.0645889
-0.0682862
-0.0716656
-0.074723
-0.0774671
-0.0799033
-0.0820408
-0.0838947
-0.0854959
-0.0868962
-0.088078
-0.0887183
-0.0881763
0.00460323
0.00454437
0.00225124
-0.00126855
-0.00509947
-0.00906945
-0.0132133
-0.017529
-0.0219785
-0.0265138
-0.0310842
-0.0356377
-0.0401224
-0.0444887
-0.0486915
-0.0526912
-0.056455
-0.0599571
-0.0631786
-0.0661145
-0.0687625
-0.0711207
-0.0731983
-0.0750086
-0.0765719
-0.0779315
-0.0791482
-0.0801382
-0.0803972
-0.079213
-0.00208465
-0.00140969
-0.00297604
-0.00581329
-0.00895463
-0.0122164
-0.0156456
-0.0192544
-0.0230163
-0.0268928
-0.0308408
-0.0348126
-0.0387584
-0.0426276
-0.0463725
-0.0499501
-0.0533241
-0.0564661
-0.0593564
-0.0619844
-0.0643469
-0.0664476
-0.0682951
-0.0699007
-0.0712803
-0.0724722
-0.0735307
-0.0743401
-0.0742737
-0.0725677
-0.00661757
-0.00558072
-0.00670111
-0.00905045
-0.0116969
-0.0144654
-0.0174043
-0.0205277
-0.0238134
-0.0272273
-0.0307301
-0.0342771
-0.0378196
-0.0413077
-0.0446925
-0.0479294
-0.0509802
-0.0538149
-0.0564126
-0.0587612
-0.0608575
-0.0627041
-0.0643084
-0.0656787
-0.0668265
-0.067784
-0.0686021
-0.0691604
-0.0687711
-0.0666936
-0.00996436
-0.00877906
-0.00962623
-0.011621
-0.0138948
-0.0162907
-0.0188566
-0.0216067
-0.0245216
-0.0275707
-0.030718
-0.0339212
-0.0371335
-0.0403057
-0.0433893
-0.0463391
-0.0491161
-0.0516895
-0.0540374
-0.0561471
-0.0580137
-0.0596395
-0.0610302
-0.0621927
-0.0631374
-0.0638955
-0.0645215
-0.0649074
-0.0643669
-0.0621398
-0.0125228
-0.0113061
-0.0119812
-0.0137093
-0.015695
-0.0178022
-0.0200769
-0.0225326
-0.0251519
-0.0279071
-0.0307646
-0.0336848
-0.0366228
-0.0395306
-0.0423605
-0.0450679
-0.0476136
-0.0499663
-0.0521036
-0.0540119
-0.0556855
-0.0571256
-0.0583373
-0.0593279
-0.0601086
-0.0607121
-0.0611984
-0.0614747
-0.0608745
-0.0585937
-0.0145396
-0.0133586
-0.0139251
-0.0154448
-0.0171995
-0.0190745
-0.0211139
-0.0233296
-0.0257057
-0.028217
-0.0308322
-0.0335138
-0.0362186
-0.0389003
-0.0415123
-0.0440104
-0.0463559
-0.0485174
-0.050472
-0.0522055
-0.0537117
-0.054991
-0.056049
-0.056894
-0.0575389
-0.0580176
-0.0583931
-0.0585857
-0.0579473
-0.0556313
-0.0161739
-0.0150635
-0.0155591
-0.016914
-0.0184787
-0.0201618
-0.0220057
-0.0240203
-0.0261911
-0.028495
-0.0309028
-0.0333786
-0.0358812
-0.0383656
-0.0407864
-0.0431003
-0.045269
-0.0472612
-0.0490539
-0.0506325
-0.0519906
-0.0531286
-0.0540527
-0.0547724
-0.0553019
-0.0556749
-0.0559548
-0.0560733
-0.0554023
-0.053061
-0.0175399
-0.0165172
-0.016958
-0.0181802
-0.019586
-0.0211068
-0.0227839
-0.0246261
-0.0266197
-0.0287434
-0.0309698
-0.0332648
-0.0355886
-0.0378979
-0.0401483
-0.0422975
-0.0443076
-0.0461478
-0.0477951
-0.049235
-0.0504609
-0.0514738
-0.0522802
-0.0528908
-0.0533203
-0.0536012
-0.053796
-0.0538472
-0.0531512
-0.0508018
-0.0187129
-0.0177913
-0.0181878
-0.0192919
-0.0205619
-0.0219425
-0.0234745
-0.0251654
-0.0270028
-0.0289668
-0.0310318
-0.0331652
-0.0353287
-0.0374802
-0.0395766
-0.0415764
-0.0434427
-0.0451449
-0.0466603
-0.0479747
-0.0490817
-0.0499827
-0.0506848
-0.0511993
-0.051541
-0.0517409
-0.0518597
-0.0518508
-0.0511393
-0.0488022
-0.0197456
-0.0189316
-0.0192989
-0.02029
-0.0214387
-0.0226958
-0.0240985
-0.0256541
-0.0273511
-0.0291712
-0.0310901
-0.0330767
-0.035094
-0.0371014
-0.0390569
-0.0409198
-0.0426541
-0.0442296
-0.0456243
-0.0468241
-0.0478233
-0.0486233
-0.049232
-0.0496609
-0.0499248
-0.050053
-0.0501044
-0.0500425
-0.0493244
-0.0470191
-0.0206655
-0.0199814
-0.0203234
-0.0212038
-0.02224
-0.0233867
-0.0246729
-0.0261053
-0.0276741
-0.0293623
-0.031147
-0.0329983
-0.0348807
-0.0367547
-0.0385795
-0.0403155
-0.0419273
-0.0433855
-0.0446685
-0.0457629
-0.0466631
-0.0473713
-0.0478953
-0.0482474
-0.048442
-0.0485067
-0.0484983
-0.04839
-0.0476726
-0.0454168
-0.0215197
-0.0209493
-0.021268
-0.0220571
-0.0229897
-0.0240336
-0.0252121
-0.0265306
-0.0279804
-0.0295459
-0.0312054
-0.0329303
-0.0346864
-0.0364355
-0.0381378
-0.0397547
-0.0412517
-0.0426001
-0.0437789
-0.0447752
-0.045584
-0.0462077
-0.0466546
-0.046937
-0.0470695
-0.0470779
-0.0470166
-0.0468675
-0.0461566
-0.0439664
-0.0223305
-0.0218615
-0.022157
-0.0228644
-0.0237034
-0.0246507
-0.0257282
-0.0269398
-0.0282776
-0.0297274
-0.0312686
-0.0328739
-0.0345103
-0.0361408
-0.0377268
-0.0392308
-0.0406191
-0.0418638
-0.0429444
-0.0438488
-0.0445723
-0.0451178
-0.0454938
-0.0457128
-0.0457894
-0.0457478
-0.0456397
-0.0454546
-0.0447549
-0.0426444
-0.0231127
-0.0227388
-0.0230098
-0.02364
-0.0243928
-0.0252497
-0.0262315
-0.0273415
-0.0285727
-0.029912
-0.0313399
-0.0328305
-0.0343521
-0.0358688
-0.0373433
-0.038739
-0.0400232
-0.0411689
-0.0421563
-0.0429736
-0.043617
-0.0440894
-0.0443998
-0.0445608
-0.0445869
-0.0445009
-0.0443516
-0.0441349
-0.04345
-0.0414317
-0.02388
-0.0235948
-0.0238399
-0.0243969
-0.0250684
-0.0258401
-0.0267306
-0.0277431
-0.0288717
-0.0301043
-0.0314227
-0.0328021
-0.0342122
-0.0356185
-0.0369846
-0.0382755
-0.0394591
-0.0405093
-0.0414072
-0.0421416
-0.042709
-0.0431128
-0.0433621
-0.0434697
-0.04345
-0.0433247
-0.0431392
-0.0428952
-0.0422281
-0.0403127
-0.0246434
-0.024441
-0.0246585
-0.0251456
-0.02574
-0.0264302
-0.0272329
-0.0281513
-0.0291802
-0.0303089
-0.0315202
-0.0327908
-0.0340915
-0.0353893
-0.0366493
-0.0378374
-0.0389227
-0.0398801
-0.0406913
-0.0413458
-0.0418406
-0.0421795
-0.0423716
-0.04243
-0.0423689
-0.0422087
-0.041992
-0.0417246
-0.0410779
-0.0392741
-0.0254121
-0.025287
-0.0254752
-0.0258953
-0.0264158
-0.0270276
-0.0277452
-0.028572
-0.0295035
-0.03053
-0.0316358
-0.0327988
-0.0339912
-0.0351816
-0.0363363
-0.0374227
-0.038411
-0.0392771
-0.0400035
-0.0405803
-0.0410052
-0.0412822
-0.0414206
-0.0414334
-0.0413348
-0.0411443
-0.040901
-0.0406145
-0.0399905
-0.0383053
-0.0261937
-0.0261416
-0.0262986
-0.0266538
-0.0271033
-0.027639
-0.0282736
-0.0290109
-0.0298465
-0.0307719
-0.0317729
-0.0328286
-0.0339129
-0.0349957
-0.0360451
-0.0370297
-0.0379212
-0.0386966
-0.0393392
-0.03984
-0.040197
-0.0404146
-0.0405023
-0.0404729
-0.0403407
-0.040124
-0.0398591
-0.0395577
-0.0389585
-0.0373978
-0.0269951
-0.0270125
-0.0271363
-0.0274285
-0.0278092
-0.0282704
-0.0288236
-0.0294732
-0.030214
-0.0310388
-0.0319349
-0.032883
-0.0338582
-0.0348325
-0.0357754
-0.0366572
-0.0374512
-0.0381354
-0.0386944
-0.0391199
-0.0394105
-0.0395709
-0.0396106
-0.0395424
-0.0393804
-0.0391419
-0.0388602
-0.0385486
-0.0379762
-0.0365448
-0.027823
-0.0279068
-0.0279956
-0.028226
-0.0285396
-0.0289274
-0.0293997
-0.0299638
-0.0306109
-0.0313348
-0.0321254
-0.0329646
-0.0338293
-0.0346929
-0.0355272
-0.0363042
-0.0369987
-0.0375905
-0.0380652
-0.0384156
-0.0386407
-0.0387456
-0.0387399
-0.0386363
-0.0384484
-0.0381928
-0.0378995
-0.0375826
-0.0370392
-0.0357419
-0.0286848
-0.0288312
-0.0288831
-0.0290526
-0.0293005
-0.0296161
-0.0300071
-0.0304862
-0.0310416
-0.0316642
-0.0323481
-0.0330766
-0.0338282
-0.0345782
-0.0353006
-0.0359694
-0.0365617
-0.0370586
-0.0374476
-0.0377222
-0.0378824
-0.0379335
-0.0378851
-0.0377496
-0.0375402
-0.0372724
-0.0369732
-0.0366563
-0.0361444
-0.0349863
-0.0295898
-0.0297922
-0.0298051
-0.0299137
-0.0300971
-0.0303418
-0.0306515
-0.0310435
-0.0315103
-0.0320313
-0.0326066
-0.0332221
-0.0338572
-0.0344897
-0.0350957
-0.0356519
-0.0361377
-0.0365364
-0.0368372
-0.0370349
-0.0371304
-0.0371292
-0.037041
-0.0368776
-0.0366517
-0.0363773
-0.0360784
-0.0357674
-0.0352899
-0.0342768
-0.0305519
-0.0307979
-0.0307684
-0.0308152
-0.0309339
-0.031109
-0.0313385
-0.0316399
-0.0320208
-0.0324407
-0.0329051
-0.0334043
-0.0339189
-0.0344286
-0.0349125
-0.0353504
-0.0357241
-0.0360201
-0.0362293
-0.0363485
-0.0363793
-0.0363278
-0.0362031
-0.0360166
-0.0357799
-0.0355054
-0.0352137
-0.0349147
-0.0344752
-0.0336135
-0.0315894
-0.0318592
-0.031783
-0.031765
-0.0318165
-0.0319216
-0.0320733
-0.032282
-0.0325749
-0.0328959
-0.033247
-0.0336264
-0.0340154
-0.0343963
-0.0347511
-0.0350634
-0.0353186
-0.0355062
-0.0356201