/*--------------------------------*- C++ -*----------------------------------*\
  =========                 |
  \\      /  F ield         | OpenFOAM: The Open Source CFD Toolbox
   \\    /   O peration     | Website:  https://openfoam.org
    \\  /    A nd           | Version:  12
     \\/     M anipulation  |
\*---------------------------------------------------------------------------*/
FoamFile
{
    format      ascii;
    class       surfaceScalarField;
    location    "40";
    object      phi;
}
// * * * * * * * * * * * * * * * * * * * * * * * * * * * * * * * * * * * * * //

dimensions      [0 3 -1 0 0 0 0];

internalField   nonuniform List<scalar> 
13275
(
0.369119
-0.00497104
0.369711
-0.0120567
0.37016
-0.0159074
0.370404
-0.0176732
-0.0181311
0.370463
0.35113
-0.00527548
0.351567
-0.0124939
0.351889
-0.0162298
0.351974
-0.017758
-0.0178803
0.351723
0.334011
-0.0054074
0.334125
-0.0126084
0.334084
-0.0161883
0.333842
-0.0175168
-0.0174549
0.333417
0.317717
-0.00537385
0.317518
-0.0124093
0.317146
-0.0158164
0.316635
-0.0170058
-0.0168573
0.316038
0.302231
-0.00520315
0.301765
-0.0119434
0.301107
-0.0151582
0.300346
-0.0162442
-0.0160639
0.299552
0.287513
-0.00492122
0.286821
-0.0112516
0.285908
-0.014246
0.284906
-0.0152422
-0.0150596
0.283902
0.273518
-0.00454679
0.272632
-0.0103659
0.271493
-0.0131065
0.270265
-0.0140138
-0.0138444
0.269049
0.26021
-0.00409485
0.259159
-0.00931506
0.257821
-0.0117684
0.256389
-0.0125812
-0.0124325
0.254977
0.247556
-0.00357973
0.24637
-0.00812901
0.244867
-0.0102654
0.243261
-0.0109755
-0.0108508
0.241679
0.235525
-0.00301633
0.234236
-0.00684016
0.232606
-0.00863603
0.230866
-0.00923559
-0.00913514
0.229151
0.224088
-0.00242011
0.22273
-0.00548246
0.221016
-0.00692188
0.219185
-0.00740454
-0.00732739
0.217377
0.213217
-0.00180651
0.211824
-0.00408965
0.210067
-0.00516481
0.208189
-0.00552655
-0.005471
0.206333
0.202885
-0.00119028
0.201489
-0.00269326
0.199728
-0.0034042
0.197845
-0.00364342
-0.00360759
0.195982
0.193066
-0.000584753
0.191694
-0.00132147
0.189964
-0.00167451
0.188113
-0.0017918
-0.00177412
0.186279
0.183732
-5.00048e-07
0.182411
-1.0466e-06
0.180738
-1.3167e-06
0.178948
-1.40177e-06
-1.38041e-06
0.177175
0.183732
0.000583753
0.182411
0.00131938
0.180738
0.00167188
0.178948
0.001789
0.00177137
0.177175
0.193066
0.00118929
0.191694
0.00269117
0.189964
0.00340159
0.188113
0.00364064
0.00360484
0.186279
0.202885
0.00180553
0.201489
0.00408758
0.199728
0.00516222
0.197845
0.00552379
0.00546828
0.195982
0.213217
0.00241916
0.211824
0.00548042
0.210067
0.00691932
0.208189
0.00740181
0.0073247
0.206332
0.224088
0.0030154
0.22273
0.00683815
0.221016
0.00863352
0.219184
0.0092329
0.00913249
0.217377
0.235525
0.00357882
0.234236
0.00812705
0.232606
0.0102629
0.230866
0.0109729
0.0108482
0.229151
0.247556
0.00409397
0.24637
0.00931315
0.244867
0.011766
0.243261
0.0125786
0.01243
0.241679
0.26021
0.00454594
0.259159
0.010364
0.257821
0.0131041
0.256389
0.0140112
0.0138419
0.254977
0.273518
0.00492041
0.272632
0.0112498
0.271493
0.0142436
0.270264
0.0152396
0.0150571
0.269049
0.287512
0.00520237
0.286821
0.0119416
0.285908
0.015156
0.284906
0.0162417
0.0160615
0.283902
0.302231
0.0053731
0.301765
0.0124075
0.301107
0.0158141
0.300345
0.0170033
0.0168548
0.299552
0.317717
0.00540669
0.317518
0.0126067
0.317146
0.0161861
0.316635
0.0175144
0.0174524
0.316037
0.334011
0.00527481
0.334125
0.0124923
0.334083
0.0162277
0.333842
0.0177556
0.0178778
0.333417
0.35113
0.00497041
0.351567
0.0120551
0.351889
0.0159053
0.351974
0.0176708
0.0181287
0.351723
0.369119
0.369711
0.370159
0.370404
0.370463
0.197111
-0.0491793
-0.197312
0.196528
-0.055505
0.195369
-0.0607726
0.193641
-0.0652112
0.191416
-0.0688133
0.188775
-0.0715417
0.185799
-0.0733315
0.182566
-0.0740828
0.179171
-0.0737199
0.175685
-0.0720918
0.172234
-0.0690248
0.168943
-0.0645067
0.165945
-0.0585407
0.163373
-0.0512143
0.161347
-0.0427053
0.159962
-0.0332751
0.159277
-0.023249
0.15931
-0.0129865
0.160035
-0.0028446
0.161398
0.00684298
0.163309
0.0158013
0.165662
0.023815
0.168342
0.0307417
0.171236
0.0365083
0.174238
0.0410999
0.177253
0.0445461
0.180199
0.0469069
0.183012
0.048263
0.185655
0.0487046
0.0483021
0.188143
0.194389
-0.0491003
-0.194468
0.193554
-0.0546703
0.19208
-0.0592983
0.190083
-0.0632138
0.187653
-0.0663831
0.184871
-0.0687603
0.181811
-0.0702717
0.178544
-0.070816
0.175152
-0.0703275
0.171701
-0.0686404
0.168308
-0.065632
0.165088
-0.0612874
0.162164
-0.0556167
0.159656
-0.0487062
0.157673
-0.0407222
0.156302
-0.0319037
0.155597
-0.0225446
0.155578
-0.0129674
0.156229
-0.00349562
0.157497
0.0055749
0.159307
0.0139921
0.161561
0.0215601
0.164157
0.0281461
0.166987
0.0336778
0.169952
0.0381354
0.172958
0.0415404
0.175922
0.0439429
0.178774
0.0454111
0.181445
0.0460335
0.0458958
0.183851
0.19102
-0.0486532
-0.191467
0.189896
-0.0535466
0.188224
-0.0576267
0.1861
-0.0610891
0.1836
-0.0638838
0.180794
-0.065954
0.177744
-0.0672219
0.174518
-0.0675902
0.171184
-0.0669927
0.167809
-0.0652656
0.164504
-0.062327
0.161374
-0.0581577
0.158532
-0.0527747
0.156089
-0.0462633
0.154146
-0.0387793
0.152785
-0.0305418
0.152057
-0.0218168
0.151984
-0.0128942
0.152552
-0.0040638
0.153718
0.00440876
0.155413
0.0122965
0.157551
0.0194222
0.160035
0.025663
0.162763
0.0309491
0.165641
0.0352574
0.168579
0.0386021
0.171498
0.0410241
0.174328
0.0425813
0.177005
0.0433565
0.0434644
0.179437
0.187515
-0.0478707
-0.188298
0.186148
-0.052179
0.184313
-0.0557918
0.182085
-0.0588611
0.17953
-0.0613292
0.176709
-0.0631327
0.173679
-0.0641918
0.170503
-0.0644141
0.167235
-0.0637253
0.163951
-0.0619808
0.160745
-0.0591217
0.157716
-0.0551281
0.154964
-0.0500227
0.15259
-0.0438898
0.150687
-0.0368764
0.149329
-0.029184
0.148567
-0.0210544
0.148422
-0.0127495
0.148887
-0.00452877
0.149927
0.0033693
0.151482
0.0107414
0.153476
0.0174282
0.155821
0.0233178
0.158426
0.0283446
0.161199
0.0324839
0.164057
0.0357447
0.166921
0.03816
0.169724
0.0397781
0.172408
0.0406729
0.0409946
0.174877
0.183914
-0.0468061
-0.184978
0.182341
-0.0506059
0.180364
-0.0538151
0.178047
-0.0565446
0.175449
-0.0587309
0.172622
-0.0603056
0.169618
-0.0611879
0.166495
-0.061291
0.1633
-0.0605299
0.160107
-0.0587882
0.157001
-0.0560161
0.15407
-0.052197
0.151406
-0.0473581
0.149099
-0.0415829
0.147233
-0.0350103
0.145876
-0.0278272
0.145076
-0.0202544
0.144855
-0.0125291
0.145211
-0.00488478
0.146116
0.00246466
0.14752
0.00933751
0.149357
0.0155913
0.151549
0.0211253
0.154014
0.0258796
0.156669
0.0298298
0.159432
0.0329816
0.16223
0.0353619
0.164997
0.0370107
0.167677
0.0379929
0.0384931
0.170178
0.180199
-0.0454975
-0.181508
0.17845
-0.0488569
0.176355
-0.0517204
0.17397
-0.054159
0.171343
-0.056104
0.168521
-0.0574836
0.16555
-0.0582166
0.162481
-0.0582223
0.159359
-0.0574082
0.156255
-0.0556838
0.153243
-0.0530041
0.150403
-0.0493569
0.147818
-0.0447736
0.145571
-0.0393362
0.143738
-0.0331769
0.142381
-0.0264697
0.141543
-0.0194174
0.14125
-0.0122356
0.1415
-0.0051351
0.142273
0.00169213
0.143526
0.00808385
0.145204
0.0139133
0.147239
0.0190909
0.149556
0.0235627
0.152079
0.0273065
0.154735
0.0303261
0.157453
0.032644
0.16017
0.0342936
0.162831
0.0353316
0.0359726
0.165352
0.176365
-0.0439792
-0.177883
0.174469
-0.0469611
0.172281
-0.049532
0.169845
-0.0517229
0.167202
-0.0534615
0.164393
-0.0546747
0.161459
-0.0552824
0.158444
-0.0552071
0.155393
-0.0543573
0.15237
-0.0526606
0.149442
-0.0500766
0.146683
-0.046598
0.144169
-0.0422594
0.141975
-0.037142
0.140169
-0.0313714
0.13881
-0.0251103
0.137938
-0.0185458
0.137577
-0.0118745
0.137729
-0.00528716
0.138378
0.00104376
0.139488
0.0069735
0.141012
0.0123896
0.142889
0.0172131
0.145056
0.0213966
0.147442
0.0249205
0.14998
0.027788
0.152605
0.0300188
0.155257
0.0316411
0.157884
0.0327048
0.0334485
0.160408
0.172413
-0.0422857
-0.174106
0.170399
-0.0449474
0.168139
-0.0472713
0.165667
-0.0492512
0.163018
-0.0508128
0.160227
-0.0518836
0.15733
-0.0523856
0.154366
-0.0522427
0.15138
-0.0513712
0.148428
-0.0497095
0.145575
-0.047223
0.142886
-0.0439093
0.140433
-0.0398059
0.138283
-0.0349925
0.136501
-0.0295892
0.135139
-0.0237483
0.134236
-0.0176427
0.133814
-0.0114523
0.133876
-0.00534996
0.134411
0.000509309
0.135388
0.0059964
0.136766
0.0110119
0.138492
0.0154865
0.14051
0.0193793
0.142756
0.0226737
0.145171
0.0253735
0.147694
0.0274961
0.150269
0.029066
0.152846
0.0301277
0.0309378
0.155357
0.168347
-0.0404502
-0.170182
0.166241
-0.0428412
0.163925
-0.0449562
0.16143
-0.0467552
0.158781
-0.0481642
0.156009
-0.0491118
0.153147
-0.0495234
0.150229
-0.0493246
0.147299
-0.0484415
0.14441
-0.0468204
0.14162
-0.0444325
0.138991
-0.0412802
0.136588
-0.0374034
0.134476
-0.0328805
0.132713
-0.0278262
0.131348
-0.0223832
0.130417
-0.0167115
0.129941
-0.0109758
0.129923
-0.00533295
0.130355
7.77105e-05
0.13121
0.00514111
0.132453
0.00976953
0.134037
0.0139027
0.13591
0.0175055
0.138019
0.0205647
0.140308
0.0230849
0.142722
0.0250822
0.145209
0.0265785
0.147723
0.0276138
0.0284571
0.150204
0.164167
-0.0385024
-0.166115
0.16199
-0.0406644
0.159635
-0.0426008
0.157123
-0.0442433
0.154478
-0.0455189
0.151725
-0.0463588
0.148893
-0.0466917
0.146015
-0.046447
0.143134
-0.0455599
0.140297
-0.0439835
0.137559
-0.0416948
0.13498
-0.038701
0.13262
-0.0350437
0.13054
-0.0308001
0.128793
-0.0260793
0.127425
-0.0210151
0.126469
-0.0157557
0.125945
-0.0104517
0.125857
-0.00524536
0.126197
-0.00026201
0.126942
0.00439596
0.12806
0.00865135
0.129511
0.0124519
0.131249
0.015768
0.133224
0.0185897
0.135386
0.0209223
0.137687
0.0227814
0.140079
0.0241865
0.142518
0.0251748
0.0260222
0.144953
0.159873
-0.0364673
-0.161908
0.157643
-0.038434
0.155258
-0.0402156
0.152735
-0.0417207
0.150094
-0.042878
0.147358
-0.0436221
0.144552
-0.0438857
0.141708
-0.0436034
0.138866
-0.0427182
0.136073
-0.0411899
0.133379
-0.0390012
0.130842
-0.0361636
0.128518
-0.0327201
0.126464
-0.0287463
0.124731
-0.0243461
0.123361
-0.0196447
0.122384
-0.0147788
0.121818
-0.00988622
0.121669
-0.00509592
0.121927
-0.000520257
0.122573
0.00374973
0.123578
0.00764627
0.124906
0.0111243
0.126515
0.0141591
0.128361
0.0167435
0.130399
0.0188841
0.132585
0.0205956
0.134875
0.0218962
0.13723
0.0228205
0.023647
0.139605
0.155459
-0.0343658
-0.157561
0.153189
-0.0361635
0.150782
-0.0378084
0.148252
-0.0391906
0.145615
-0.0402413
0.142891
-0.0408988
0.140107
-0.0411007
0.137291
-0.0407875
0.134482
-0.0399092
0.131724
-0.0384321
0.129067
-0.0363445
0.126565
-0.0336615
0.124272
-0.0304276
0.122242
-0.0267162
0.120522
-0.0226258
0.119151
-0.0182733
0.118157
-0.0137847
0.117556
-0.00928568
0.117353
-0.00489279
0.117539
-0.000706666
0.118097
0.00319198
0.118999
0.00674382
0.120214
0.00991015
0.121702
0.0126707
0.123425
0.0150207
0.125341
0.0169677
0.127411
0.0185258
0.129595
0.019712
0.131857
0.0205593
0.0213442
0.134159
0.150917
-0.032214
-0.153069
0.148616
-0.0338629
0.146193
-0.0353845
0.143657
-0.0366545
0.141023
-0.0376075
0.13831
-0.0381859
0.135542
-0.0383325
0.132748
-0.037994
0.129966
-0.0371271
0.127238
-0.0357044
0.124613
-0.0337195
0.122143
-0.0311907
0.119878
-0.0281632
0.11787
-0.0247081
0.116163
-0.0209185
0.114793
-0.0169031
0.113786
-0.0127775
0.113156
-0.00865606
0.112907
-0.00464363
0.11303
-0.000830107
0.113509
0.00271315
0.114318
0.00593439
0.115428
0.00880054
0.116804
0.0112951
0.118409
0.0134155
0.120207
0.0151698
0.122161
0.0165718
0.124235
0.0176373
0.126397
0.018398
0.0191247
0.128616
0.146234
-0.0300243
-0.148424
0.143911
-0.0315396
0.141474
-0.0329475
0.138933
-0.0341135
0.136301
-0.0349757
0.133596
-0.035481
0.130841
-0.0355778
0.128067
-0.0352192
0.125308
-0.0343682
0.122607
-0.0330035
0.12001
-0.0311233
0.117569
-0.0287489
0.115331
-0.0259257
0.113345
-0.0227222
0.111653
-0.0192259
0.110287
-0.0155372
0.109271
-0.0117619
0.108619
-0.00800335
0.108331
-0.00435567
0.108399
-0.000898779
0.108808
0.00230451
0.109533
0.0052092
0.110546
0.00778719
0.111816
0.0100252
0.113309
0.0119224
0.114992
0.0134873
0.11683
0.0147332
0.118793
0.0156749
0.120848
0.0163427
0.0169987
0.122974
0.141395
-0.0278065
-0.143613
0.139055
-0.0291992
0.136608
-0.0305003
0.134062
-0.0315684
0.131432
-0.0323452
0.128734
-0.0327826
0.125991
-0.0328349
0.123233
-0.032461
0.120495
-0.0316306
0.117819
-0.0303278
0.115251
-0.0285551
0.112838
-0.0263362
0.110629
-0.0237161
0.108667
-0.0207604
0.106992
-0.0175508
0.105634
-0.0141796
0.104615
-0.0107429
0.103945
-0.00733363
0.103626
-0.0040359
0.103647
-0.000920333
0.103994
0.00195802
0.104643
0.00456024
0.105567
0.00686257
0.106738
0.00885448
0.108124
0.0105364
0.109694
0.0119171
0.111418
0.0130092
0.113266
0.0138267
0.11521
0.0143986
0.0149747
0.117234
0.13638
-0.0255683
-0.138618
0.134028
-0.0268468
0.131573
-0.028046
0.129026
-0.0290206
0.126397
-0.0297167
0.123706
-0.030091
0.120974
-0.0301036
0.118233
-0.0297198
0.115517
-0.0289149
0.112868
-0.0276783
0.110329
-0.0260164
0.107948
-0.0239545
0.105768
-0.021537
0.103834
-0.018826
0.10218
-0.0158972
0.100836
-0.0128349
0.0998188
-0.00972587
0.0991383
-0.00665312
0.0987936
-0.00369114
0.0987753
-0.000902036
0.099067
0.00166623
0.0996471
0.00398016
0.10049
0.00601977
0.101568
0.00777681
0.102851
0.0092527
0.104312
0.0104562
0.105922
0.011399
0.107655
0.0120944
0.109483
0.01257
0.0130607
0.111397
0.131167
-0.0233169
-0.133419
0.128808
-0.0244872
0.12635
-0.0255879
0.123802
-0.0264728
0.121177
-0.0270923
0.118495
-0.0274081
0.115777
-0.0273862
0.113055
-0.0269978
0.110364
-0.0262238
0.107744
-0.0250583
0.105238
-0.0235109
0.102892
-0.021608
0.100748
-0.0193929
0.0988456
-0.0169238
0.0972187
-0.0142704
0.0958928
-0.0115089
0.0948839
-0.00871701
0.094199
-0.00596827
0.0938361
-0.00332816
0.0937849
-0.000850886
0.0940291
0.00142206
0.0945472
0.00346206
0.0953146
0.00525236
0.0963048
0.00678657
0.0974907
0.00806679
0.0988454
0.00910148
0.100343
0.00990148
0.101958
0.0104791
0.103668
0.0108606
0.0112635
0.105465
0.12573
-0.0210592
-0.127987
0.123369
-0.0221261
0.120912
-0.0231309
0.118368
-0.0239293
0.115752
-0.0244761
0.113082
-0.0247381
0.110383
-0.0246871
0.107685
-0.0242999
0.105024
-0.0235624
0.102438
-0.0224731
0.0999716
-0.0210441
0.0976661
-0.0193024
0.0955629
-0.0172897
0.0936991
-0.01506
0.0921054
-0.0126767
0.0908044
-0.010208
0.0898103
-0.00772282
0.0891277
-0.00528574
0.0887533
-0.00295376
0.0886762
-0.000773724
0.0888795
0.00121876
0.0893421
0.00299939
0.0900402
0.00455425
0.0909484
0.0058784
0.0920409
0.00697433
0.0932924
0.00784999
0.0946786
0.00851525
0.0961762
0.00898146
0.0977636
0.00927325
0.00958905
0.0994381
0.120038
-0.0188033
-0.122294
0.117682
-0.0197706
0.115233
-0.0206815
0.1127
-0.0213966
0.110098
-0.0218744
0.107448
-0.0220876
0.104774
-0.0220131
0.102107
-0.0216331
0.0994828
-0.0209382
0.09694
-0.0199303
0.0945196
-0.0186237
0.0922627
-0.0170456
0.0902081
-0.0152351
0.0883902
-0.013242
0.0868368
-0.0111232
0.085568
-0.00893929
0.0845956
-0.00675034
0.0839223
-0.00461249
0.0835433
-0.00257478
0.0834469
-0.000677293
0.0836159
0.00104975
0.0840294
0.00258587
0.0846641
0.00391957
0.0854954
0.00504708
0.0864988
0.00597098
0.0876502
0.00669855
0.0889269
0.00723861
0.0903068
0.00760148
0.0917701
0.00780994
0.00804202
0.0933172
0.114056
-0.0165589
-0.1163
0.111714
-0.0174292
0.109281
-0.0182487
0.106768
-0.0188835
0.10419
-0.0192964
0.101568
-0.0194658
0.098929
-0.0193737
0.0963028
-0.0190069
0.0937253
-0.0183606
0.0912345
-0.0174395
0.0888701
-0.0162594
0.0866712
-0.0148467
0.0846742
-0.0132381
0.0829107
-0.0114785
0.0814059
-0.00961842
0.0801772
-0.00771062
0.0792339
-0.00580705
0.0785771
-0.00395568
0.0782005
-0.00219815
0.0780915
-0.000568276
0.0782326
0.000908588
0.0786031
0.00221538
0.0791801
0.00334265
0.0799396
0.00428748
0.0808582
0.00505239
0.081913
0.00564382
0.0830821
0.00606945
0.0843451
0.00633853
0.0856832
0.00647177
0.00662605
0.0870992
0.107741
-0.0143382
-0.109961
0.105426
-0.015115
0.103023
-0.0158449
0.10054
-0.0164012
0.0979972
-0.0167534
0.0954156
-0.0168842
0.0928224
-0.0167804
0.0902488
-0.0164334
0.0877299
-0.0158417
0.085303
-0.0150126
0.0830061
-0.0139625
0.0808762
-0.0127168
0.0789472
-0.0113091
0.077248
-0.00977931
0.0758009
-0.00817131
0.0746208
-0.00653048
0.0737146
-0.00490086
0.0730816
-0.00332273
0.0727143
-0.00183085
0.0725993
-0.000453284
0.0727189
0.000789011
0.0730523
0.001882
0.073577
0.00281795
0.0742699
0.00359459
0.0751081
0.00421418
0.0760697
0.00468223
0.0771339
0.00500525
0.0782811
0.00519134
0.0794939
0.00525894
0.00534358
0.0807764
0.101043
-0.0121576
-0.103224
0.0987713
-0.0128429
0.0964101
-0.0134837
0.093973
-0.0139641
0.0914795
-0.0142598
0.0889528
-0.0143575
0.0864206
-0.0142482
0.0839142
-0.0139271
0.0814684
-0.0133959
0.0791194
-0.0126635
0.0769035
-0.0117466
0.0748555
-0.0106688
0.0730065
-0.00946013
0.0713825
-0.00815535
0.0700032
-0.00679197
0.0688807
-0.00540804
0.06802
-0.00404009
0.0674185
-0.00272125
0.0670675
-0.00147988
0.066953
-0.000338812
0.0670571
0.00068495
0.067359
0.00158003
0.0678368
0.00234018
0.0684679
0.00296356
0.06923
0.00345203
0.0701021
0.00381014
0.0710642
0.00404319
0.0720974
0.00415807
0.0731855
0.00417082
0.00419592
0.0743332
0.0938985
-0.0100358
-0.0960203
0.0916867
-0.0106312
0.0893858
-0.0111828
0.087012
-0.0115903
0.0845859
-0.0118338
0.082132
-0.0119036
0.0796786
-0.0117947
0.0772572
-0.0115057
0.0749018
-0.0110405
0.0726474
-0.0104091
0.0705284
-0.00962755
0.0685769
-0.00871735
0.0668215
-0.00770469
0.0652852
-0.00661902
0.0639847
-0.00549147
0.0629298
-0.00435314
0.0621232
-0.00323349
0.0615609
-0.00215899
0.0612332
-0.00115218
0.0611256
-0.000231137
0.0612198
0.000590672
0.0614957
0.00130421
0.0619314
0.00190445
0.0625051
0.00238987
0.0631952
0.00276188
0.0639814
0.003024
0.0648442
0.00318035
0.0657657
0.0032366
0.0667303
0.00320621
0.00318345
0.0677427
0.0862192
-0.00799551
-0.0882595
0.0840892
-0.00850117
0.0818711
-0.00896468
0.0795827
-0.00930194
0.0772461
-0.00949719
0.074887
-0.00954451
0.0725343
-0.00944196
0.0702193
-0.00919075
0.0679752
-0.00879642
0.0658354
-0.00826925
0.0638319
-0.0076241
0.0619944
-0.00687984
0.0603482
-0.00605853
0.0589135
-0.00518431
0.0577042
-0.00428213
0.0567275
-0.00337649
0.0559843
-0.00249027
0.0554692
-0.00164387
0.0551716
-0.000854559
0.0550766
-0.000136161
0.0551663
0.000500992
0.0554206
0.0010499
0.0558185
0.00150659
0.0563386
0.00186974
0.0569602
0.00214028
0.0576635
0.00232073
0.0584297
0.00241413
0.0592414
0.00242486
0.0600838
0.00236378
0.00230604
0.0609613
0.0778843
-0.00606483
-0.079815
0.0758635
-0.00648037
0.0737557
-0.00685688
0.0715801
-0.00712638
0.0693606
-0.00727763
0.0671238
-0.00730773
0.064899
-0.00721715
0.0627171
-0.00700891
0.0606101
-0.00668933
0.0586091
-0.00626829
0.0567439
-0.00575887
0.0550409
-0.00517689
0.0535225
-0.00454012
0.0522056
-0.00386744
0.0511014
-0.0031779
0.0502148
-0.00248987
0.0495447
-0.00182024
0.0490848
-0.00118394
0.0488238
-0.000593548
0.0487468
-5.91565e-05
0.0488362
0.000411631
0.0490725
0.000813592
0.0494354
0.00114364
0.0499046
0.00140061
0.0504599
0.00158496
0.0510823
0.00169835
0.0517536
0.00174279
0.052457
0.00172146
0.0531781
0.00164265
0.00156371
0.0539205
0.0687158
-0.00427886
-0.0705018
0.0668392
-0.00460375
0.0648766
-0.00489434
0.0628494
-0.00509912
0.0607827
-0.00521093
0.058704
-0.00522909
0.0566425
-0.00515565
0.0546282
-0.00499454
0.0526909
-0.0047521
0.0508597
-0.00443705
0.0491611
-0.00406023
0.0476182
-0.00363407
0.0462501
-0.003172
0.0450705
-0.00268782
0.0440877
-0.00219511
0.0433045
-0.00170663
0.0427182
-0.001234
0.0423216
-0.000787342
0.0421033
-0.000375183
0.0420485
-4.3539e-06
0.0421403
0.000319775
0.0423603
0.000593585
0.0426893
0.000814716
0.0431078
0.000982123
0.0435968
0.00109589
0.0441382
0.00115693
0.0447146
0.00116644
0.0453094
0.0011266
0.0459088
0.00104328
0.000957331
0.0465152
0.058436
-0.00268348
-0.0600314
0.0567504
-0.00291818
0.0549813
-0.00312523
0.0531516
-0.00326939
0.0512875
-0.00334681
0.0494165
-0.00335811
0.0475668
-0.00330598
0.0457667
-0.0031944
0.0440435
-0.00302895
0.0424231
-0.00281662
0.0409284
-0.00256556
0.039579
-0.00228465
0.0383901
-0.00198306
0.0373721
-0.00166987
0.0365307
-0.00135372
0.0358666
-0.00104254
0.035376
-0.00074338
0.035051
-0.000462365
0.0348805
-0.000204634
0.0348505
2.56146e-05
0.0349453
0.000225047
0.0351476
0.000391216
0.0354399
0.000522445
0.0358042
0.000617816
0.036223
0.000677119
0.0366792
0.000700703
0.0371564
0.000689191
0.037639
0.000644072
0.0381134
0.000568858
0.000489119
0.0385816
0.0465868
-0.00134539
-0.0479249
0.045162
-0.00149346
0.0436589
-0.00162208
0.0421009
-0.00171137
0.0405138
-0.00175974
0.0389239
-0.00176826
0.0373574
-0.00173939
0.0358394
-0.00167643
0.034394
-0.00158353
0.0330428
-0.00146548
0.0318047
-0.00132747
0.0306949
-0.00117484
0.0297247
-0.00101281
0.0289011
-0.000846296
0.0282272
-0.000679788
0.0277019
-0.000517266
0.0273207
-0.000362189
0.0270759
-0.000217529
0.026957
-8.5805e-05
0.0269518
3.0894e-05
0.027046
0.000130814
0.0272247
0.000212511
0.0274722
0.00027491
0.0277728
0.000317278
0.0281107
0.000339236
0.0284706
0.000340732
0.0288378
0.000322002
0.0291979
0.000283976
0.0295388
0.000227993
0.000165848
0.0298621
0.0323522
-0.00037865
-0.0333189
0.0313078
-0.000449136
0.0301947
-0.000508997
0.0290337
-0.000550275
0.0278472
-0.000573321
0.0266584
-0.000579443
0.0254895
-0.000570484
0.0243616
-0.000548477
0.0232936
-0.000515599
0.0223022
-0.000474098
0.021401
-0.000426194
0.0206001
-0.000373985
0.0199067
-0.000319376
0.0193244
-0.000264041
0.018854
-0.000209407
0.0184934
-0.000156678
0.0182381
-0.000106858
0.0180814
-6.08133e-05
0.018015
-1.94442e-05
0.018029
1.69051e-05
0.0181121
4.77327e-05
0.0182525
7.20886e-05
0.0184378
8.96282e-05
0.0186552
9.99348e-05
0.0188917
0.000102658
0.019135
9.75074e-05
0.0193727
8.42706e-05
0.0195937
6.30107e-05
0.0197882
3.34117e-05
-1.72792e-06
0.0199558
0.0142239
-0.0146026
0.0137748
0.0132658
0.0127155
0.0121422
0.0115628
0.0109923
0.0104438
0.00992819
0.00945409
0.0090279
0.00865391
0.00833454
0.0080705
0.00786109
0.00770441
0.00759755
0.00753674
0.0075173
0.0075342
0.00758193
0.00765402
0.00774365
0.00784359
0.00794624
0.00804375
0.00812802
0.00819103
0.00822444
0.00822272
0.352101
-0.178951
0.334905
-0.177272
0.318297
-0.174858
0.302156
-0.172157
0.286385
-0.169208
0.270909
-0.166032
0.255683
-0.162656
0.24068
-0.159104
0.225888
-0.15539
0.211301
-0.151529
0.19692
-0.147527
0.18275
-0.143391
0.168799
-0.139118
0.155079
-0.134704
0.141605
-0.13014
0.128399
-0.125412
0.115483
-0.120503
0.102887
-0.115392
0.0906454
-0.110051
0.0787966
-0.104451
0.0673879
-0.0985525
0.0564733
-0.0923094
0.0461157
-0.0856628
0.0363901
-0.0785338
0.0273878
-0.0708127
0.0192258
-0.0623398
0.0120641
-0.0528697
0.00614192
-0.0420027
0.00187199
-0.029049
-0.0127306
0.335249
-0.162476
0.318929
-0.160952
0.303
-0.158929
0.287397
-0.156554
0.272072
-0.153883
0.256999
-0.150959
0.242162
-0.14782
0.227554
-0.144495
0.213172
-0.141008
0.199016
-0.137373
0.185093
-0.133604
0.17141
-0.129708
0.157977
-0.125685
0.144809
-0.121536
0.131922
-0.117252
0.119334
-0.112824
0.107069
-0.108238
0.095153
-0.103476
0.0836171
-0.0985156
0.0724968
-0.0933309
0.0618332
-0.087889
0.051674
-0.0821501
0.0420743
-0.076063
0.0330997
-0.0695593
0.0248311
-0.0625441
0.0173726
-0.0548812
0.0108669
-0.046364
0.00552643
-0.0366622
0.00170239
-0.0252249
-0.0110282
0.317776
-0.146836
0.302305
-0.145481
0.287078
-0.143702
0.27209
-0.141566
0.257331
-0.139123
0.242794
-0.136422
0.228479
-0.133505
0.214388
-0.130404
0.200525
-0.127145
0.186898
-0.123746
0.173518
-0.120223
0.160394
-0.116584
0.147541
-0.112832
0.134972
-0.108967
0.122706
-0.104985
0.11076
-0.100878
0.0991565
-0.0966344
0.0879199
-0.0922391
0.077078
-0.0876737
0.0666629
-0.0829158
0.0567113
-0.0779374
0.0472652
-0.0727041
0.0383738
-0.0671716
0.0300954
-0.0612809
0.0225023
-0.0549511
0.0156877
-0.0480666
0.00977904
-0.0404553
0.00496324
-0.0318464
0.00153815
-0.0217998
-0.00949004
0.301121
-0.131919
0.286341
-0.130701
0.271731
-0.129092
0.257303
-0.127138
0.243068
-0.124889
0.229038
-0.122392
0.215222
-0.119689
0.201632
-0.116814
0.18828
-0.113793
0.175178
-0.110645
0.162339
-0.107384
0.149776
-0.104021
0.137502
-0.100558
0.125533
-0.0969981
0.113884
-0.0933367
0.102573
-0.0895677
0.0916208
-0.0856819
0.0810484
-0.0816667
0.0708812
-0.0775065
0.0611475
-0.0731821
0.0518799
-0.0686697
0.0431155
-0.0639397
0.0348978
-0.0589539
0.0272788
-0.053662
0.0203231
-0.0479953
0.0141135
-0.041857
0.00876271
-0.0351045
0.00443344
-0.0275172
0.00137578
-0.0187422
-0.00811426
0.285237
-0.117604
0.271027
-0.116491
0.256951
-0.115016
0.243032
-0.11322
0.229294
-0.11115
0.215756
-0.108853
0.202436
-0.106369
0.18935
-0.103729
0.176515
-0.100957
0.163944
-0.0980738
0.151652
-0.0950919
0.139652
-0.0920203
0.127957
-0.0888639
0.116582
-0.0856235
0.105543
-0.082297
0.0948544
-0.0788793
0.084535
-0.0753625
0.0746045
-0.0717362
0.0650851
-0.0679871
0.0560019
-0.0640989
0.0473836
-0.0600514
0.039263
-0.0558191
0.0316787
-0.0513696
0.0246771
-0.0466603
0.0183151
-0.0416334
0.0126664
-0.0362083
0.00782969
-0.0302678
0.00394494
-0.0236324
0.00122134
-0.0160186
-0.00689292
0.2701
-0.103802
0.256389
-0.102779
0.2428
-0.101427
0.229363
-0.0997834
0.216107
-0.0978943
0.203057
-0.095803
0.190233
-0.0935455
0.177655
-0.0911509
0.16534
-0.0886421
0.153303
-0.0860365
0.141557
-0.0833464
0.130117
-0.08058
0.118995
-0.0777417
0.108204
-0.0748327
0.0977583
-0.0718512
0.0876722
-0.0687932
0.0779617
-0.065652
0.0686444
-0.0624189
0.05974
-0.0590827
0.0512705
-0.0556295
0.0432614
-0.0520422
0.0357416
-0.0482993
0.0287454
-0.0443734
0.0223137
-0.0402286
0.0164971
-0.0358169
0.0113604
-0.0310715
0.0069894
-0.0258968
0.00350405
-0.0201471
0.00107942
-0.0135939
-0.0058135
0.255711
-0.0904635
0.242463
-0.0895311
0.229338
-0.0883025
0.216372
-0.0868166
0.203593
-0.0851159
0.19103
-0.0832394
0.178704
-0.0812195
0.166635
-0.0790819
0.154839
-0.0768471
0.143333
-0.0745302
0.132129
-0.0721424
0.12124
-0.0696906
0.110677
-0.067179
0.100453
-0.0646085
0.0905797
-0.061978
0.0810703
-0.0592838
0.071939
-0.0565206
0.0632012
-0.0536811
0.0548742
-0.0507557
0.0469776
-0.0477329
0.0395337
-0.0445983
0.0325682
-0.0413338
0.0261113
-0.0379165
0.0201994
-0.0343166
0.014877
-0.0304945
0.010201
-0.0263955
0.00624583
-0.0219416
0.00311407
-0.0170153
0.000952913
-0.0114328
-0.00486059
0.242082
-0.0775686
0.229283
-0.0767319
0.216616
-0.0756354
0.204116
-0.0743169
0.191815
-0.0728148
0.179739
-0.0711635
0.167911
-0.0693911
0.156349
-0.0675201
0.14507
-0.065568
0.134087
-0.0635478
0.123414
-0.061469
0.113061
-0.0593377
0.103039
-0.0571573
0.0933596
-0.0549286
0.0840324
-0.0526508
0.0750695
-0.0503209
0.0664833
-0.0479344
0.0582873
-0.0454851
0.050497
-0.0429654
0.0431294
-0.0403654
0.0362044
-0.0376733
0.0297446
-0.034874
0.023777
-0.0319488
0.0183334
-0.0288731
0.0134535
-0.0256146
0.00918678
-0.0221288
0.00559801
-0.0183529
0.00277519
-0.0141925
0.000842873
-0.00950047
-0.00401771
0.229224
-0.0651133
0.216873
-0.0643811
0.204665
-0.063427
0.192634
-0.0622862
0.180812
-0.0609926
0.169224
-0.0595754
0.157891
-0.0580584
0.146832
-0.0564607
0.13606
-0.0547967
0.12559
-0.0530776
0.115432
-0.051311
0.105597
-0.0495021
0.096093
-0.0476536
0.0869308
-0.0457664
0.0781196
-0.0438396
0.0696694
-0.0418708
0.0615914
-0.0398563
0.0538974
-0.0377912
0.046601
-0.035669
0.0397174
-0.0334818
0.0332641
-0.0312199
0.0272612
-0.0288712
0.0217326
-0.0264202
0.0167067
-0.0238472
0.0122183
-0.0211262
0.00831113
-0.0182216
0.00504149
-0.0150832
0.00248538
-0.0116364
0.000749106
-0.00776419
-0.00326861
0.217141
-0.053103
0.205244
-0.0524842
0.193499
-0.051682
0.18194
-0.0507278
0.170598
-0.0496502
0.159496
-0.0484731
0.148653
-0.0472163
0.138088
-0.0458951
0.127813
-0.0445214
0.117839
-0.0431041
0.108177
-0.0416494
0.0988366
-0.0401613
0.0898252
-0.0386422
0.0811514
-0.0370926
0.0728236
-0.0355119
0.0648509
-0.0338981
0.0572429
-0.0322483
0.0500103
-0.0305585
0.0431649
-0.0288236
0.0367204
-0.0270373
0.0306923
-0.0251918
0.0250986
-0.0232775
0.0199606
-0.0212822
0.0153036
-0.0191902
0.0111585
-0.0169811
0.00756391
-0.014627
0.00456936
-0.0120887
0.002241
-0.00930804
0.000670606
-0.00619379
-0.002598
0.205821
-0.041547
0.194385
-0.0410486
0.183109
-0.0404055
0.172025
-0.0396437
0.161161
-0.0387863
0.15054
-0.0378523
0.14018
-0.0368568
0.130097
-0.035812
0.120303
-0.0347272
0.110808
-0.033609
0.101621
-0.0324625
0.0927504
-0.0312906
0.0842034
-0.0300952
0.0759875
-0.0288767
0.0681101
-0.0276345
0.0605792
-0.0263672
0.0534034
-0.0250725
0.0465921
-0.0237472
0.0401561
-0.0223876
0.0341075
-0.0209887
0.0284603
-0.0195446
0.0232306
-0.0180478
0.0184376
-0.0164892
0.014104
-0.0148566
0.0102576
-0.0131346
0.00693262
-0.011302
0.00417315
-0.00932921
0.00203745
-0.00717234
0.000605889
-0.00476223
-0.00199211
0.19524
-0.030454
0.184272
-0.0300807
0.173467
-0.0296005
0.162857
-0.0290337
0.152468
-0.0283974
0.142321
-0.0277055
0.132433
-0.0269693
0.122819
-0.0261975
0.113489
-0.0253968
0.104452
-0.0245723
0.0957168
-0.0237274
0.0872906
-0.0228644
0.07918
-0.0219846
0.0713915
-0.0210882
0.0639318
-0.0201748
0.0568081
-0.0192434
0.050028
-0.0182924
0.0436002
-0.0173194
0.0375342
-0.0163217
0.0318412
-0.0152957
0.0265337
-0.0142371
0.0216265
-0.0131406
0.0171368
-0.0119995
0.0130854
-0.0108052
0.00949728
-0.00954652
0.00640352
-0.00820827
0.00384361
-0.0067693
0.00186967
-0.0051984
0.000553247
-0.00344581
-0.00143886
0.185358
-0.0198309
0.174862
-0.0195841
0.164529
-0.0192674
0.15439
-0.0188946
0.144469
-0.0184768
0.134787
-0.0180231
0.125358
-0.0175408
0.116196
-0.0170357
0.107312
-0.016512
0.0987123
-0.015973
0.0904058
-0.0154209
0.0823986
-0.0148573
0.0746968
-0.0142828
0.0673064
-0.0136977
0.0602334
-0.0131018
0.0534842
-0.0124943
0.047066
-0.0118741
0.0409865
-0.0112399
0.0352546
-0.0105898
0.0298804
-0.00992145
0.0248754
-0.00923215
0.0202532
-0.00851845
0.0160298
-0.00777602
0.0122239
-0.00699937
0.0088587
-0.00618129
0.00596249
-0.00531206
0.00357133
-0.00437813
0.00173249
-0.00335956
0.000510925
-0.00222424
-0.000927939
0.176129
-0.00968047
0.166104
-0.00955895
0.15624
-0.00940331
0.146565
-0.00922035
0.137104
-0.00901552
0.127874
-0.00879326
0.118891
-0.00855713
0.110165
-0.00830989
0.101706
-0.00805368
0.0935235
-0.00779005
0.0856226
-0.0075201
0.0780099