/*--------------------------------*- C++ -*----------------------------------*\
  =========                 |
  \\      /  F ield         | OpenFOAM: The Open Source CFD Toolbox
   \\    /   O peration     | Website:  https://openfoam.org
    \\  /    A nd           | Version:  12
     \\/     M anipulation  |
\*---------------------------------------------------------------------------*/
FoamFile
{
    format      ascii;
    class       volScalarField;
    location    "40";
    object      pMean;
}
// * * * * * * * * * * * * * * * * * * * * * * * * * * * * * * * * * * * * * //

dimensions      [0 2 -2 0 0 0 0];

internalField   nonuniform List<scalar> 
6750
(
-0.036598
-0.0366517
-0.0367795
-0.0370262
-0.0376861
-0.0340941
-0.0340772
-0.0341356
-0.034329
-0.0345631
-0.0314625
-0.0314598
-0.031518
-0.0316484
-0.03172
-0.0288424
-0.0288715
-0.0289231
-0.0289993
-0.0290048
-0.0263046
-0.0263735
-0.02643
-0.0264737
-0.0264391
-0.0239264
-0.0240392
-0.024109
-0.0241327
-0.024071
-0.0217578
-0.0219154
-0.0220012
-0.0220093
-0.0219262
-0.0198292
-0.020031
-0.0201324
-0.0201264
-0.0200241
-0.0181596
-0.0184034
-0.0185187
-0.0184991
-0.0183794
-0.0167585
-0.0170406
-0.0171676
-0.0171349
-0.0169999
-0.0156267
-0.0159424
-0.0160784
-0.0160337
-0.0158859
-0.0147575
-0.0151011
-0.0152431
-0.0151882
-0.0150304
-0.014137
-0.014503
-0.0146476
-0.0145845
-0.0144197
-0.0137457
-0.0141289
-0.0142715
-0.0142034
-0.014035
-0.0135643
-0.0139532
-0.0140903
-0.0140223
-0.0138537
-0.0135632
-0.0139521
-0.0140891
-0.0140212
-0.0138525
-0.0137424
-0.0141256
-0.0142682
-0.0142
-0.0140315
-0.0141315
-0.0144974
-0.014642
-0.0145788
-0.014414
-0.0147499
-0.0150934
-0.0152353
-0.0151803
-0.0150224
-0.015617
-0.0159325
-0.0160684
-0.0160237
-0.0158758
-0.0167467
-0.0170287
-0.0171556
-0.0171227
-0.0169877
-0.0181459
-0.0183895
-0.0185047
-0.0184849
-0.0183651
-0.0198136
-0.0200153
-0.0201165
-0.0201103
-0.0200078
-0.0217404
-0.0218979
-0.0219835
-0.0219914
-0.0219081
-0.0239074
-0.0240201
-0.0240897
-0.0241131
-0.0240514
-0.0262842
-0.026353
-0.0264093
-0.0264528
-0.0264182
-0.0288208
-0.0288498
-0.0289012
-0.0289772
-0.0289828
-0.0314399
-0.0314371
-0.0314952
-0.0316255
-0.0316973
-0.0340707
-0.0340538
-0.034112
-0.0343054
-0.0345399
-0.036574
-0.0366276
-0.0367553
-0.037002
-0.0376622
-0.0414135
-0.0412447
-0.0405613
-0.04012
-0.0398432
-0.0396296
-0.039447
-0.0392685
-0.039075
-0.0388501
-0.0385592
-0.0381944
-0.0377505
-0.0372272
-0.0366321
-0.0359787
-0.0352851
-0.0345718
-0.0338567
-0.033148
-0.0324656
-0.0318175
-0.031208
-0.0306392
-0.0301114
-0.0296246
-0.0291773
-0.0287442
-0.0283083
-0.0282072
-0.0386857
-0.0383896
-0.0380438
-0.0379453
-0.0379292
-0.0379313
-0.0379425
-0.0379469
-0.0379362
-0.0378945
-0.037784
-0.0375971
-0.0373227
-0.0369562
-0.0365019
-0.0359728
-0.0353882
-0.0347706
-0.0341435
-0.0335357
-0.032953
-0.0324094
-0.0319106
-0.0314577
-0.0310492
-0.030683
-0.0303575
-0.0300489
-0.0296826
-0.0294161
-0.0365009
-0.0364689
-0.0363296
-0.0363189
-0.0363426
-0.0363815
-0.0364383
-0.0365048
-0.0365803
-0.0366478
-0.0366823
-0.0366777
-0.0366209
-0.0365018
-0.0363154
-0.0360622
-0.0357476
-0.0353817
-0.034976
-0.0345424
-0.0340962
-0.0336484
-0.033208
-0.0327816
-0.0323736
-0.0319876
-0.0316294
-0.0312915
-0.0309091
-0.0305855
-0.0348654
-0.0349997
-0.0349238
-0.0349202
-0.0349542
-0.0350168
-0.0351105
-0.0352323
-0.0353848
-0.035552
-0.0357203
-0.0358821
-0.0360226
-0.0361273
-0.0361834
-0.0361803
-0.0361116
-0.0359752
-0.0357728
-0.0355092
-0.0351946
-0.0348397
-0.0344556
-0.0340534
-0.0336429
-0.0332329
-0.0328334
-0.0324456
-0.0320194
-0.0316425
-0.0334122
-0.033586
-0.0335311
-0.0335472
-0.0336124
-0.0337182
-0.033867
-0.0340609
-0.0343033
-0.0345814
-0.0348867
-0.0352092
-0.0355322
-0.0358372
-0.0361049
-0.0363172
-0.0364592
-0.0365203
-0.0364955
-0.0363852
-0.0361952
-0.0359353
-0.0356176
-0.0352557
-0.0348626
-0.034451
-0.0340337
-0.0336157
-0.033151
-0.0327128
-0.0320093
-0.0321798
-0.032146
-0.0321947
-0.0323027
-0.0324608
-0.0326753
-0.0329516
-0.0332928
-0.0336893
-0.0341345
-0.0346159
-0.0351142
-0.0356072
-0.0360703
-0.0364793
-0.0368128
-0.0370541
-0.037193
-0.0372261
-0.0371565
-0.0369928
-0.0367474
-0.0364352
-0.0360715
-0.0356715
-0.0352514
-0.0348169
-0.034326
-0.0338366
-0.0306367
-0.0307962
-0.0307904
-0.0308765
-0.0310319
-0.031248
-0.0315346
-0.0318995
-0.0323447
-0.032864
-0.0334502
-0.0340883
-0.0347569
-0.0354298
-0.0360778
-0.0366716
-0.0371845
-0.0375948
-0.0378881
-0.0380577
-0.0381048
-0.0380367
-0.0378661
-0.0376084
-0.0372805
-0.0368997
-0.0364854
-0.0360434
-0.0355342
-0.0350109
-0.029285
-0.0294385
-0.0294631
-0.0295909
-0.0297974
-0.030078
-0.030443
-0.0309019
-0.031456
-0.0321013
-0.032829
-0.0336223
-0.034457
-0.0353034
-0.0361282
-0.0368974
-0.03758
-0.0381503
-0.0385903
-0.0388907
-0.0390508
-0.0390772
-0.0389823
-0.0387823
-0.038495
-0.03814
-0.0377372
-0.0372956
-0.0367748
-0.0362292
-0.0279439
-0.0280985
-0.0281577
-0.0283323
-0.0285957
-0.0289467
-0.029396
-0.0299537
-0.0306216
-0.0313959
-0.0322662
-0.0332137
-0.0342116
-0.0352268
-0.0362221
-0.0371597
-0.0380046
-0.0387278
-0.0393084
-0.0397348
-0.0400049
-0.0401245
-0.040106
-0.039966
-0.039723
-0.0393986
-0.0390128
-0.0385761
-0.0380488
-0.0374885
-0.0266053
-0.0267708
-0.0268708
-0.0270955
-0.0274212
-0.027848
-0.0283879
-0.0290496
-0.0298359
-0.0307423
-0.0317569
-0.0328585
-0.0340179
-0.0351987
-0.0363604
-0.0374615
-0.0384636
-0.0393347
-0.0400515
-0.0406005
-0.0409783
-0.0411902
-0.0412486
-0.0411702
-0.040975
-0.0406844
-0.040321
-0.0398942
-0.0393629
-0.0387882
-0.025264
-0.0254492
-0.0255938
-0.0258741
-0.0262683
-0.0267772
-0.0274129
-0.0281841
-0.0290934
-0.0301354
-0.0312965
-0.0325533
-0.0338739
-0.035219
-0.0365446
-0.0378062
-0.0389622
-0.0399781
-0.0408282
-0.0414977
-0.0419819
-0.0422859
-0.0424216
-0.0424064
-0.0422609
-0.0420075
-0.0416706
-0.0412576
-0.0407234
-0.0401298
-0.0239152
-0.0241269
-0.0243204
-0.0246613
-0.0251306
-0.0257278
-0.0264653
-0.0273517
-0.0283889
-0.0295706
-0.0308813
-0.0322953
-0.0337781
-0.0352874
-0.0367762
-0.038197
-0.0395055
-0.0406647
-0.041647
-0.0424361
-0.0430266
-0.0434229
-0.043637
-0.0436866
-0.0435929
-0.0433794
-0.0430714
-0.042676
-0.0421398
-0.0415176
-0.0225535
-0.022796
-0.0230425
-0.023451
-0.0240017
-0.0246934
-0.0255389
-0.0265465
-0.0277173
-0.0290435
-0.0305077
-0.0320821
-0.0337293
-0.0354042
-0.0370571
-0.0386375
-0.0400987
-0.0414013
-0.0425162
-0.0434255
-0.0441231
-0.044613
-0.0449071
-0.0450234
-0.0449838
-0.0448125
-0.0445369
-0.0441629
-0.0436236
-0.042959
-0.0211736
-0.0214473
-0.0217506
-0.0222337
-0.0228728
-0.0236662
-0.0246268
-0.0257626
-0.0270733
-0.0285498
-0.0301725
-0.0319114
-0.0337266
-0.0355701
-0.0373893
-0.0391314
-0.0407471
-0.0421949
-0.0434441
-0.0444757
-0.0452826
-0.0458684
-0.0462451
-0.0464311
-0.0464481
-0.046322
-0.0460823
-0.0457333
-0.0451889
-0.0444647
-0.0197689
-0.02007
-0.0204334
-0.0209989
-0.0217349
-0.0226383
-0.0237222
-0.0249937
-0.0264516
-0.028085
-0.0298724
-0.0317814
-0.0337694
-0.0357857
-0.0377753
-0.0396826
-0.0414562
-0.0430527
-0.0444397
-0.0455969
-0.0465166
-0.047202
-0.0476649
-0.0479238
-0.0480013
-0.047924
-0.0477242
-0.0474038
-0.046852
-0.0460494
-0.0183309
-0.0186517
-0.0190784
-0.0197353
-0.0205779
-0.0216007
-0.0228168
-0.0242325
-0.0258461
-0.0276445
-0.0296041
-0.0316899
-0.033857
-0.0360521
-0.0382175
-0.0402953
-0.042232
-0.0439822
-0.0455121
-0.0468002
-0.0478378
-0.0486277
-0.0491818
-0.0495183
-0.0496608
-0.0496368
-0.0494815
-0.0491942
-0.0486326
-0.0477317
-0.0168488
-0.0171773
-0.0176703
-0.0184292
-0.0193896
-0.0205423
-0.0219006
-0.0234711
-0.0252502
-0.027223
-0.0293636
-0.0316348
-0.033989
-0.0363703
-0.0387188
-0.0409742
-0.0430809
-0.0449919
-0.0466716
-0.0480974
-0.0492598
-0.0501611
-0.0508129
-0.0512334
-0.0514463
-0.0514814
-0.051377
-0.0511274
-0.0505536
-0.0495347
-0.0153083
-0.0156284
-0.0161904
-0.0170637
-0.0181549
-0.0194499
-0.0209627
-0.0226999
-0.0246562
-0.0268145
-0.0291468
-0.0316135
-0.0341645
-0.0367415
-0.0392823
-0.0417243
-0.0440101
-0.0460907
-0.0479293
-0.0495019
-0.050798
-0.0518193
-0.0525772
-0.05309
-0.0533811
-0.0534826
-0.0534366
-0.0532315
-0.0526436
-0.0514877
-0.0136905
-0.0139824
-0.0146161
-0.0156182
-0.0168554
-0.0183071
-0.0199891
-0.0219073
-0.0240544
-0.0264114
-0.0289482
-0.0316228
-0.0343825
-0.0371669
-0.0399113
-0.0425514
-0.0450275
-0.0472892
-0.049298
-0.0510287
-0.0524698
-0.0536223
-0.0544973
-0.0551129
-0.0554925
-0.0556701
-0.0556915
-0.0555386
-0.0549348
-0.0536261
-0.0119692
-0.0122088
-0.012918
-0.0140675
-0.0154693
-0.017095
-0.0189626
-0.0210787
-0.023433
-0.0260047
-0.0287614
-0.0316587
-0.0346417
-0.0376477
-0.0406099
-0.0434619
-0.0461424
-0.0485993
-0.0507924
-0.0526955
-0.0542958
-0.0555935
-0.056599
-0.0573306
-0.057811
-0.0580769
-0.0581778
-0.0580877
-0.0574699
-0.0559948
-0.0101064
-0.0102704
-0.0110599
-0.0123766
-0.0139665
-0.0157878
-0.0178618
-0.0201956
-0.0227769
-0.0255826
-0.0285779
-0.0317162
-0.0349402
-0.0381853
-0.0413825
-0.0444636
-0.0473658
-0.0500352
-0.0524303
-0.0545233
-0.0563004
-0.0577608
-0.0589142
-0.0597782
-0.0603758
-0.0607462
-0.0609446
-0.0609287
-0.0602994
-0.0586496
-0.0080511
-0.00811815
-0.00899748
-0.0105047
-0.0123091
-0.0143518
-0.0166576
-0.0192337
-0.0220663
-0.0251297
-0.0283866
-0.0317882
-0.0352753
-0.0387809
-0.0422344
-0.045566
-0.0487112
-0.0516147
-0.0542334
-0.0565382
-0.0585141
-0.0601589
-0.0614817
-0.0624993
-0.0632346
-0.063729
-0.0640432
-0.0641205
-0.0634878
-0.0616612
-0.00573134
-0.00568068
-0.00666191
-0.00839273
-0.0104451
-0.0127411
-0.0153108
-0.0181606
-0.0212748
-0.0246253
-0.0281727
-0.0318657
-0.0356431
-0.0394361
-0.0431725
-0.046781
-0.0501957
-0.0533599
-0.0562292
-0.0587731
-0.060975
-0.0628318
-0.0643512
-0.0655494
-0.0664494
-0.0670931
-0.0675481
-0.0677435
-0.0671214
-0.0651225
-0.00304108
-0.00285589
-0.00396216
-0.00595987
-0.00830399
-0.0108954
-0.013769
-0.0169318
-0.0203663
-0.0240417
-0.0279161
-0.0319362
-0.0360386
-0.0401531
-0.0442059
-0.0481246
-0.0518421
-0.0553006
-0.0584543
-0.0612712
-0.0637336
-0.0658368
-0.0675873
-0.0689999
-0.0700977
-0.0709248
-0.0715535
-0.0718973
-0.0713104
-0.0691557
0.000173009
0.000490541
-0.000774115
-0.00309211
-0.00578466
-0.00872765
-0.0119576
-0.015485
-0.0192905
-0.0233402
-0.0275896
-0.0319832
-0.0364558
-0.0409356
-0.045348
-0.0496194
-0.0536822
-0.0574774
-0.0609584
-0.0640918
-0.0668584
-0.069252
-0.0712777
-0.0729486
-0.0742874
-0.0753427
-0.0761874
-0.0767179
-0.0762009
-0.0739252
0.00416255
0.00458265
0.00309589
0.000381161
-0.00274074
-0.0061086
-0.00976697
-0.0137298
-0.0179754
-0.0224666
-0.0271558
-0.0319852
-0.0368881
-0.0417914
-0.0466198
-0.0512996
-0.0557626
-0.0599498
-0.0638134
-0.0673193
-0.0704466
-0.0731875
-0.0755455
-0.0775317
-0.0791682
-0.0805073
-0.0816281
-0.0823999
-0.0820086
-0.0796691
0.0093042
0.00974217
0.00793247
0.00471062
0.0010558
-0.00284118
-0.00703166
-0.0115319
-0.016317
-0.0213452
-0.0265656
-0.0319178
-0.0373333
-0.0427387
-0.0480588
-0.0532205
-0.0581566
-0.0628085
-0.0671284
-0.0710814
-0.0746454
-0.0778106
-0.0805779
-0.082956
-0.0849656
-0.0866612
-0.088126
-0.0892121
-0.0890246
-0.0867187
0.0163732
0.016594
0.0142406
0.0103321
0.00597567
0.00138204
-0.00350371
-0.0086977
-0.0141705
-0.0198756
-0.0257581
-0.031755
-0.0377968
-0.0438105
-0.0497228
-0.0554631
-0.0609669
-0.0661781
-0.0710508
-0.0755503
-0.0796536
-0.0833494
-0.0866362
-0.0895203
-0.0920201
-0.0941899
-0.0961133
-0.0976343
-0.09782
-0.0957607
0.0264395
0.0259992
0.02279
0.0179962
0.012733
0.00720606
0.00136648
-0.00478707
-0.0112113
-0.0178484
-0.0246347
-0.0315019
-0.0383787
-0.0451936
-0.0518772
-0.0583638
-0.0645948
-0.0705211
-0.0761001
-0.0813002
-0.0860933
-0.0904643
-0.094407
-0.0979212
-0.101019
-0.103746
-0.106178
-0.108179
-0.108897
-0.107435
0.044688
0.042319
0.0371002
0.0306429
0.0237877
0.0166395
0.00917866
0.00144323
-0.00649807
-0.0145725
-0.0227098
-0.030842
-0.0389048
-0.0468393
-0.0545927
-0.0621191
-0.0693774
-0.076329
-0.0829424
-0.089188
-0.0950477
-0.100502
-0.105536
-0.110137
-0.1143
-0.118045
-0.121429
-0.124414
-0.126415
-0.126311
-0.0388636
-0.0375642
-0.0357564
-0.0341737
-0.0327187
-0.0313002
-0.0299018
-0.0285196
-0.027146
-0.0257709
-0.0243833
-0.0229706
-0.0215184
-0.0200106
-0.0184286
-0.0167517
-0.014956
-0.0130139
-0.0108926
-0.00855237
-0.00594304
-0.00300184
0.000352346
0.00422677
0.00876912
0.0141898
0.0207608
0.028947
0.0388704
0.0525548
-0.0344082
-0.0331014
-0.0316989
-0.0304333
-0.02922
-0.0280092
-0.0267916
-0.0255625
-0.0243141
-0.0230381
-0.021726
-0.0203688
-0.0189563
-0.0174771
-0.0159181
-0.0142633
-0.0124936
-0.0105853
-0.00850862
-0.00622533
-0.00368555
-0.00082387
0.00244759
0.00624896
0.01075
0.0161972
0.0229395
0.0315709
0.0425761
0.0579534
-0.0314006
-0.0302043
-0.0290174
-0.0278992
-0.0267787
-0.0256351
-0.0244681
-0.0232748
-0.0220486
-0.0207822
-0.0194677
-0.0180961
-0.0166575
-0.0151405
-0.0135318
-0.0118155
-0.00997251
-0.0079789
-0.00580453
-0.00341052
-0.000745963
0.00225685
0.00568996
0.00968094
0.0144116
0.0201469
0.0272732
0.0364375
0.0483089
0.0649329
-0.028678
-0.0275884
-0.0265104
-0.0254732
-0.0244201
-0.0233351
-0.022216
-0.0210582
-0.0198546
-0.0185973
-0.0172781
-0.0158879
-0.0144162
-0.0128511
-0.0111784
-0.00938147
-0.00743964
-0.00532743
-0.0030126
-0.000453822
0.00240277
0.00562865
0.00932056
0.0136122
0.0186923
0.024834
0.0324344
0.0421401
0.0547004
0.0721338
-0.0261244
-0.0251335
-0.0241493
-0.0231875
-0.0221976
-0.0211642
-0.0200839
-0.0189515
-0.0177603
-0.0165027
-0.0151706
-0.0137547
-0.0122444
-0.0106273
-0.00888868
-0.00701083
-0.00497197
-0.00274499
-0.000295747
0.00241944
0.00545729
0.00889279
0.0128269
0.0173981
0.0228007
0.0293128
0.0373368
0.0475153
0.060672
0.0788283
-0.0237776
-0.0228789
-0.0219789
-0.0210827
-0.0201445
-0.0191505
-0.0180974
-0.0169804
-0.0157928
-0.0145276
-0.0131766
-0.0117306
-0.0101787
-0.00850837
-0.00670439
-0.00474835
-0.00261759
-0.00028389
0.00228826
0.00514419
0.00834267
0.0119611
0.0161035
0.0209119
0.0265843
0.0334031
0.0417758
0.0523473
0.0660182
0.0848647
-0.0216539
-0.0208404
-0.0200146
-0.0191737
-0.018277
-0.0173131
-0.016279
-0.0151703
-0.0139806
-0.0127032
-0.01133
-0.00985176
-0.00825774
-0.00653503
-0.00466809
-0.00263802
-0.000421465
0.00201059
0.00469464
0.00767717
0.0110183
0.0147973
0.0191199
0.0241305
0.0300301
0.0371041
0.0457647
0.0566617
0.0707623
0.0902192
-0.0197669
-0.0190312
-0.0182703
-0.0174753
-0.0166118
-0.0156706
-0.0146494
-0.0135439
-0.0123484
-0.0110563
-0.00965966
-0.00814949
-0.00651491
-0.00474287
-0.00281756
-0.000719652
0.0015747
0.00409511
0.00687879
0.00997307
0.0134391
0.017357
0.0218342
0.0270166
0.0331071
0.0403931
0.0492911
0.0604559
0.0749142
0.0948599
-0.0181296
-0.0174638
-0.0167585
-0.016001
-0.0151634
-0.0142391
-0.0132261
-0.0121205
-0.0109171
-0.00960948
-0.00819011
-0.00664996
-0.00497816
-0.00316156
-0.00118412
0.000973786
0.00333637
0.00593369
0.00880346
0.0119936
0.0155659
0.0196014
0.0242081
0.0295333
0.0357809
0.0432399
0.0523301
0.0637108
0.0784727
0.098766
-0.0167504
-0.0161459
-0.0154869
-0.0147592
-0.0139415
-0.0130294
-0.0120212
-0.0109136
-0.00970161
-0.00837922
-0.00693907
-0.00537223
-0.00366783
-0.00181263
0.000209572
0.00241861
0.00483896
0.00750097
0.0104427
0.0137125
0.0173727
0.0215046
0.0262169
0.0316575
0.0380314
0.0456278
0.0548695
0.0664176
0.0814217
0.101971
-0.0156317
-0.015079
-0.0144571
-0.0137523
-0.0129494
-0.0120458
-0.0110403
-0.00992979
-0.00870967
-0.00737421
-0.00591623
-0.00432688
-0.00259528
-0.000708142
0.00135084
0.00360165
0.00606893
0.00878325
0.0117829
0.0151166
0.0188467
0.0230551
0.0278508
0.0333819
0.039854
0.0475562
0.0569137
0.0685842
0.0837723
0.104527
-0.0147689
-0.0142576
-0.0136641
-0.0129761
-0.0121838
-0.0112861
-0.0102819
-0.00916834
-0.00794126
-0.0065951
-0.00512281
-0.0035156
-0.0017626
0.000149524
0.00223713
0.00452031
0.00702381
0.00977835
0.0128224
0.0162048
0.0199883
0.0242547
0.0291133
0.0347124
0.0412578
0.0490382
0.0584811
0.0702347
0.0855665
0.106467
-0.0141508
-0.0136703
-0.0130969
-0.0124203
-0.0116353
-0.0107413
-0.00973759
-0.00862151
-0.00738908
-0.00603491
-0.00455206
-0.00293177
-0.00116321
0.000767016
0.00287529
0.00518175
0.00771124
0.0104946
0.0135704
0.0169875
0.0208089
0.0251165
0.0300197
0.0356667
0.0422636
0.0500983
0.0596013
0.0714049
0.0868551
0.10783
-0.0137604
-0.0132999
-0.012739
-0.0120696
-0.0112888
-0.010397
-0.00939344
-0.00827557
-0.00703957
-0.00568016
-0.00419047
-0.00256177
-0.000783219
0.00115857
0.00328002
0.00560132
0.00814734
0.010949
0.0140449
0.0174841
0.0213295
0.0256632
0.0305945
0.0362718
0.042901
0.0507696
0.0603112
0.0721388
0.087668
0.108691
-0.0135766
-0.0131257
-0.0125708
-0.0119046
-0.0111258
-0.010235
-0.00923135
-0.00811255
-0.0068748
-0.00551286
-0.00401988
-0.00238715
-0.000603826
0.00134348
0.00347122
0.00579959
0.00835349
0.0111638
0.0142694
0.0177191
0.021576
0.0259222
0.030867
0.0365589
0.0432035
0.0510882
0.0606488
0.0724837
0.0880446
0.109113
-0.0135754
-0.0131245
-0.0125696
-0.0119035
-0.0111247
-0.0102339
-0.00923026
-0.00811148
-0.00687375
-0.00551185
-0.00401891
-0.00238622
-0.000602935
0.00134433
0.00347201
0.00580032
0.00835417
0.0111645
0.01427
0.0177197
0.0215765
0.0259228
0.0308677
0.0365596
0.0432042
0.0510888
0.0606492
0.072484
0.0880452
0.109114
-0.0137569
-0.0132964
-0.0127356
-0.0120662
-0.0112855
-0.0103938
-0.00939022
-0.00827241
-0.00703649
-0.00567718
-0.00418759
-0.00255901
-0.000780582
0.00116107
0.00328238
0.00560353
0.00814941
0.0109509
0.0140467
0.0174858
0.0213312
0.025665
0.0305965
0.0362739
0.0429031
0.0507715
0.0603125
0.0721397
0.0876699
0.108694
-0.014145
-0.0136645
-0.0130911
-0.0124147
-0.0116297
-0.0107359
-0.00973226
-0.00861631
-0.00738401
-0.00603
-0.00454733
-0.00292724
-0.00115887
0.000771137
0.00287919
0.00518543
0.00771471
0.0104979
0.0135735
0.0169906
0.0208119
0.0251197
0.0300229
0.0356702
0.042267
0.0501016
0.0596037
0.0714069
0.0868582
0.107834
-0.0147609
-0.0142496
-0.0136562
-0.0129683
-0.0121762
-0.0112786
-0.0102745
-0.00916116
-0.00793428
-0.00658835
-0.00511631
-0.00350937
-0.00175665
0.000155194
0.00224253
0.00452543
0.00702867
0.00978299
0.0128269
0.0162092
0.0199926
0.0242591
0.0291178
0.034717
0.0412624
0.0490429
0.0584851
0.0702383
0.0855711
0.106472
-0.0156215
-0.0150688
-0.0144471
-0.0137424
-0.0129397
-0.0120363
-0.011031
-0.00992073
-0.00870087
-0.0073657
-0.00590806
-0.00431906
-0.00258781
-0.000701004
0.00135767
0.00360819
0.00607519
0.00878926
0.0117888
0.0151223
0.0188523
0.0230607
0.0278563
0.0333874
0.0398597
0.0475624
0.0569197
0.0685898
0.0837786
0.104533
-0.0167381
-0.0161336
-0.0154748
-0.0147473
-0.0139299
-0.013018
-0.0120101
-0.0109028
-0.00969109
-0.00836905
-0.00692931
-0.0053629
-0.00365891
-0.00180409
0.000217773
0.00242652
0.00484659
0.00750837
0.0104499
0.0137196
0.0173796
0.0215113
0.0262234
0.0316639
0.0380382
0.0456358
0.054878
0.0664256
0.0814299
0.101977
-0.0181153
-0.0174495
-0.0167444
-0.0159872
-0.01515
-0.014226
-0.0132132
-0.012108
-0.010905
-0.00959775
-0.00817883
-0.00663916
-0.00496784
-0.00315167
-0.0011746
0.000983009
0.00334535
0.00594245
0.00881203
0.012002
0.015574
0.0196091
0.0242154
0.0295404
0.0357888
0.0432498
0.0523414
0.0637215
0.078483
0.0987727
-0.0197506
-0.0190149
-0.0182544
-0.0174597
-0.0165966
-0.0156558
-0.014635
-0.0135299
-0.0123348
-0.0110431
-0.00964693
-0.00813728
-0.00650322
-0.00473166
-0.00280676
-0.000709159
0.00158496
0.00410519
0.00688867
0.0099827
0.0134483
0.0173658
0.0218424
0.0270247
0.0331163
0.0404051
0.0493053
0.0604693
0.0749253
0.0948674
-0.0216357
-0.0208224
-0.019997
-0.0191565
-0.0182602
-0.0172967
-0.0162631
-0.0151547
-0.0139656
-0.0126886
-0.0113159
-0.00983818
-0.00824471
-0.00652251
-0.00465604
-0.0026263
-0.00040998
0.0020219
0.00470575
0.00768798
0.0110287
0.014807
0.0191289
0.0241397
0.0300409
0.0371184
0.0457817
0.0566775
0.0707739
0.0902271
-0.0237579
-0.0228594
-0.0219598
-0.0210641
-0.0201263
-0.0191327
-0.0180801
-0.0169635
-0.0157764
-0.0145117
-0.0131612
-0.0117157
-0.0101644
-0.00849461
-0.00669112
-0.00473546
-0.00260495
-0.000271439
0.0023005
0.00515609
0.00835403
0.0119718
0.0161137
0.0209223
0.0265969
0.0334198
0.0417953
0.052365
0.0660302
0.0848721
-0.0261035
-0.0251127
-0.0241289
-0.0231676
-0.0221781
-0.0211452
-0.0200653
-0.0189334
-0.0177426
-0.0164855
-0.0151539
-0.0137385
-0.0122288
-0.0106123
-0.00887424
-0.00699683
-0.00495826
-0.00273149
-0.000282478
0.00243235
0.00546968
0.00890457
0.0128383
0.0174102
0.0228152
0.0293315
0.0373582
0.0475342
0.0606842
0.0788347
-0.0286561
-0.0275667
-0.026489
-0.0254522
-0.0243995
-0.0233149
-0.0221963
-0.0210389
-0.0198357
-0.0185789
-0.0172603
-0.0158706
-0.0143994
-0.0128349
-0.0111628
-0.00936637
-0.00742489
-0.00531292
-0.00299835
-0.000439939
0.00241618
0.0056416
0.00933347
0.0136261
0.0187088
0.0248545
0.0324568
0.0421589
0.0547119
0.0721392
-0.0313781
-0.0301818
-0.0289951
-0.0278772
-0.0267571
-0.0256139
-0.0244473
-0.0232544
-0.0220287
-0.0207628
-0.0194487
-0.0180776
-0.0166396
-0.0151232
-0.013515
-0.0117993
-0.00995666
-0.00796337
-0.00578932
-0.00339568
-0.000731522
0.00227102
0.00570437
0.00969692
0.0144298
0.0201683
0.027295
0.0364544
0.0483189
0.0649379
-0.0343852
-0.0330781
-0.0316757
-0.0304105
-0.0291976
-0.0279872
-0.02677
-0.0255413
-0.0242933
-0.0230178
-0.0217062
-0.0203493
-0.0189373
-0.0174588
-0.0159003
-0.014246
-0.0124768
-0.0105689
-0.00849271
-0.00620983
-0.00367037
-0.000808757
0.00246316
0.00626659
0.0107695
0.016218
0.0229588
0.0315841
0.0425841
0.0579593
-0.0388391
-0.0375391
-0.0357318
-0.03415
-0.0326955
-0.0312777
-0.0298798
-0.0284981
-0.0271249
-0.0257504
-0.0243633
-0.0229511
-0.0214994
-0.0199921
-0.0184107
-0.0167344
-0.0149394
-0.0129979
-0.0108772
-0.00853743
-0.00592827
-0.00298686
0.000367924
0.00424516
0.00878856
0.014208
0.0207756
0.0289556
0.0388762
0.0525619
0.0446969
0.0423293
0.037109
0.0306506
0.023795
0.0166471
0.00918582
0.00144932
-0.00649362
-0.0145701
-0.0227098
-0.0308446
-0.03891
-0.0468469
-0.0546025
-0.0621308
-0.0693912
-0.076344
-0.0829587
-0.0892053
-0.0950657
-0.100521
-0.105555
-0.110155
-0.114318
-0.118063
-0.121448
-0.124433
-0.126436
-0.126334
0.0264449
0.0260036
0.022795
0.0180027
0.0127401
0.00721314
0.00137248
-0.0047827
-0.0112089
-0.0178481
-0.0246366
-0.0315059
-0.0383848
-0.0452017
-0.0518872
-0.0583757
-0.0646083
-0.0705363
-0.0761166
-0.0813178
-0.0861118
-0.0904835
-0.0944266
-0.097941
-0.101039
-0.103766
-0.106198
-0.108199
-0.108916
-0.107454
0.0163803
0.0166023
0.01425
0.0103421
0.00598487
0.0013898
-0.003498
-0.00869423
-0.0141693
-0.0198765
-0.0257609
-0.0317597
-0.0378032
-0.0438186
-0.0497325
-0.0554745
-0.0609799
-0.0661929
-0.0710673
-0.0755684
-0.0796732
-0.0833702
-0.086658
-0.0895426
-0.0920426
-0.0942122
-0.0961349
-0.097655
-0.0978397
-0.0957792
0.00931646
0.00975471
0.00794419
0.00472087
0.00106354
-0.00283592
-0.00702891
-0.0115315
-0.0163184
-0.0213483
-0.0265701
-0.0319235
-0.0373403
-0.0427469
-0.0480683
-0.0532316
-0.0581693
-0.062823
-0.0671449
-0.0711
-0.0746659
-0.077833
-0.0806019
-0.0829813
-0.0849915
-0.0866871
-0.0881511
-0.0892354
-0.0890456
-0.086737
0.00417782
0.00459663
0.00310768
0.000389224
-0.00273616
-0.00610677
-0.00976761
-0.0137325
-0.0179797
-0.022472
-0.0271621
-0.0319922
-0.0368958
-0.0418
-0.0466294
-0.0513105
-0.0557751
-0.0599641
-0.0638298
-0.0673379
-0.0704674
-0.0732106
-0.0755705
-0.0775584
-0.079196
-0.0805355
-0.0816559
-0.0824264
-0.0820323
-0.0796895
0.000189864
0.000504249
-0.000764548
-0.00308698
-0.00578273
-0.00872872
-0.0119611
-0.0154903
-0.0192971
-0.0233476
-0.0275975
-0.0319913
-0.0364643
-0.0409446
-0.0453577
-0.0496303
-0.0536944
-0.0574914
-0.0609744
-0.06411
-0.0668788
-0.0692746
-0.0713023
-0.0729749
-0.0743151
-0.0753712
-0.0762161
-0.076746
-0.0762272
-0.073949
-0.00302503
-0.00284376
-0.0039544
-0.00595523
-0.00830336
-0.0108979
-0.0137737
-0.0169383
-0.020374
-0.0240502
-0.0279249
-0.0319451
-0.0360477
-0.0401624
-0.0442159
-0.0481355
-0.0518542
-0.0553142
-0.0584696
-0.0612885
-0.0637529
-0.0658581
-0.0676105
-0.0690249
-0.070124
-0.0709522
-0.0715818
-0.0719257
-0.0713381
-0.0691825
-0.00571804
-0.00566989
-0.0066543
-0.00838887
-0.0104447
-0.0127435
-0.0153155
-0.0181671
-0.0212827
-0.024634
-0.0281818
-0.0318749
-0.0356523
-0.0394455
-0.0431823
-0.0467916
-0.0502073
-0.0533728
-0.0562436
-0.0587892
-0.0609928
-0.0628513
-0.0643725
-0.0655723
-0.0664738
-0.0671188
-0.0675749
-0.0677711
-0.0671495
-0.0651509
-0.00803797
-0.00810685
-0.0089888
-0.0105
-0.012308
-0.0143535
-0.0166615
-0.0192397
-0.0220737
-0.025138
-0.0283954
-0.0317972
-0.0352843
-0.03879
-0.0422438
-0.045576
-0.048722
-0.0516265
-0.0542465
-0.0565528
-0.0585302
-0.0601766
-0.061501
-0.0625201
-0.0632571
-0.063753
-0.0640685
-0.0641469
-0.0635157
-0.0616902
-0.0100934
-0.0102591
-0.0110513
-0.0123707
-0.0139643
-0.0157885
-0.017865
-0.0202007
-0.0227836
-0.0255904
-0.0285862
-0.0317247
-0.0349488
-0.0381939
-0.0413912
-0.0444728
-0.0473756
-0.0500459
-0.0524421
-0.0545363
-0.0563148
-0.0577766
-0.0589316
-0.0597972
-0.0603965
-0.0607686
-0.0609682
-0.0609544
-0.0603267
-0.0586781
-0.0119559
-0.0121969
-0.0129087
-0.0140611
-0.0154657
-0.0170947
-0.0189648
-0.021083
-0.023439
-0.0260118
-0.0287691
-0.0316666
-0.0346496
-0.0376556
-0.0406178
-0.0434701
-0.0461511
-0.0486087
-0.0508028
-0.0527069
-0.0543085
-0.0556076
-0.0566147
-0.057348
-0.0578303
-0.0580982
-0.0582008
-0.0581124
-0.0574963
-0.0560225
-0.0136766
-0.0139696
-0.0146059
-0.0156112
-0.0168509
-0.0183057
-0.0199903
-0.0219109
-0.0240596
-0.0264178
-0.0289552
-0.0316299
-0.0343895
-0.0371739
-0.0399183
-0.0425586
-0.0450351
-0.0472975
-0.049307
-0.0510387
-0.0524811
-0.053635
-0.0545115
-0.055129
-0.0555104
-0.0556897
-0.0557135
-0.0555626
-0.0549606
-0.053653
-0.0152937
-0.0156149
-0.0161794
-0.0170557
-0.0181498
-0.0194474
-0.0209631
-0.0227027
-0.0246606
-0.0268199
-0.0291528
-0.0316196
-0.0341705
-0.0367475
-0.0392883
-0.0417305
-0.0440167
-0.046098
-0.0479372
-0.0495108
-0.0508081
-0.0518308
-0.0525904
-0.053105
-0.0533982
-0.0535019
-0.0534581
-0.0532549
-0.0526688
-0.0515138
-0.0168334
-0.0171631
-0.0176587
-0.0184206
-0.019384
-0.0205393
-0.0219001
-0.0234729
-0.0252536
-0.0272274
-0.0293685
-0.0316398
-0.0339939
-0.0363753
-0.0387239
-0.0409795
-0.0430867
-0.0449982
-0.0466786
-0.0481054
-0.049269
-0.0501717
-0.0508252
-0.0512478
-0.0514629
-0.0515003
-0.0513979
-0.0511502
-0.0505779
-0.0495599
-0.0183148
-0.0186367
-0.0190659
-0.0197259
-0.0205715
-0.021597
-0.0228151
-0.024233
-0.0258482
-0.0276476
-0.0296076
-0.0316937
-0.0338609
-0.0360561
-0.0382217
-0.0402999
-0.0422371
-0.0439879
-0.0455186
-0.0468076
-0.0478464
-0.0486378
-0.0491937
-0.0495322
-0.0496769
-0.0496551
-0.0495019
-0.0492164
-0.0486563
-0.047756
-0.0197521
-0.0200543
-0.0204201
-0.0209884
-0.0217272
-0.0226333
-0.0237194
-0.0249927
-0.0264521
-0.0280866
-0.0298746
-0.0317839
-0.0337721
-0.0357888
-0.0377787
-0.0396865
-0.0414607
-0.0430579
-0.0444457
-0.045604
-0.0465249
-0.0472118
-0.0476765
-0.0479374
-0.0480171
-0.047942
-0.0477443
-0.0474257
-0.0468752
-0.046073
-0.0211562
-0.0214308
-0.0217363
-0.022222
-0.0228637
-0.0236596
-0.0246225
-0.02576
-0.0270722
-0.0285497
-0.0301732
-0.0319127
-0.0337283
-0.0355723
-0.0373921
-0.0391348
-0.0407512
-0.0421998
-0.04345
-0.0444826
-0.0452908
-0.0458782
-0.0462568
-0.0464447
-0.0464639
-0.0463399
-0.0461023
-0.0457549
-0.0452116
-0.0444876
-0.0225354
-0.0227787
-0.0230272
-0.0234381
-0.0239913
-0.0246851
-0.0255327
-0.0265421
-0.0277144
-0.0290418
-0.0305069
-0.032082
-0.0337299
-0.0354056
-0.0370592
-0.0386404
-0.0401025
-0.0414061
-0.042522
-0.0434325
-0.0441315
-0.044623
-0.0449189
-0.0450372
-0.0449996
-0.0448304
-0.0445568
-0.0441844
-0.0436461
-0.0429813
-0.0238964
-0.0241088
-0.024304
-0.0246473
-0.025119
-0.025718
-0.0264573
-0.0273455
-0.0283843
-0.0295673
-0.030879
-0.032294
-0.0337777
-0.0352879
-0.0367777
-0.0381995
-0.0395091
-0.0406694
-0.0416529
-0.0424433
-0.0430353
-0.0434332
-0.0436492
-0.0437007
-0.0436089
-0.0433974
-0.0430913
-0.0426973
-0.042162
-0.0415396
-0.0252447
-0.0254303
-0.0255764
-0.0258588
-0.026255
-0.0267657
-0.0274031
-0.0281762
-0.029087
-0.0301305
-0.0312928
-0.0325508
-0.0338725
-0.0352187
-0.0365455
-0.0378083
-0.0389657
-0.0399828
-0.0408343
-0.0415052
-0.0419911
-0.0422967
-0.0424342
-0.0424209
-0.0422772
-0.0420256
-0.0416903
-0.0412788
-0.0407455
-0.0401516
-0.0265852
-0.0267512
-0.0268526
-0.027079
-0.027406
-0.0278349
-0.0283765
-0.02904
-0.0298279
-0.0307358
-0.0317517
-0.0328547
-0.0340155
-0.0351977
-0.0363608
-0.0374633
-0.038467
-0.0393396
-0.0400579
-0.0406085
-0.0409879
-0.0412016
-0.0412617
-0.0411852
-0.0409915
-0.0407025
-0.0403406
-0.0399154
-0.0393848
-0.0388099
-0.0279231
-0.0280782
-0.0281387
-0.0283147
-0.0285794
-0.0289321
-0.0293832
-0.0299425
-0.030612
-0.0313879
-0.0322597
-0.0332087
-0.0342081
-0.0352249
-0.0362219
-0.0371613
-0.0380079
-0.0387329
-0.0393152
-0.0397433
-0.0400151
-0.0401364
-0.0401197
-0.0399814
-0.03974
-0.0394171
-0.0390326
-0.0385971
-0.0380706
-0.0375101
-0.0292637
-0.0294176
-0.0294433
-0.0295724
-0.02978
-0.0300619
-0.0304288
-0.0308891
-0.0314448
-0.0320918
-0.0328211
-0.0336161
-0.0344526
-0.0353008
-0.0361275
-0.0368987
-0.0375833
-0.0381555
-0.0385974
-0.0388997
-0.0390615
-0.0390896
-0.0389964
-0.038798
-0.0385122
-0.0381587
-0.0377573
-0.0373166
-0.0367962
-0.0362506
-0.0306147
-0.0307748
-0.0307697
-0.0308566
-0.0310132
-0.0312307
-0.0315189
-0.0318853
-0.032332
-0.032853
-0.0334409
-0.034081
-0.0347515
-0.0354265
-0.0360767
-0.0366727
-0.0371878
-0.0376003
-0.0378956
-0.0380672
-0.0381161
-0.0380497
-0.0378806
-0.0376245
-0.0372981
-0.0369184
-0.0365049
-0.0360636
-0.0355553
-0.0350322
-0.0319869
-0.0321578
-0.0321246
-0.0321737
-0.0322828
-0.0324425
-0.0326582
-0.032936
-0.0332787
-0.0336769
-0.034124
-0.0346074
-0.0351079
-0.0356032
-0.0360687
-0.0364802
-0.0368162
-0.0370599
-0.037201
-0.0372361
-0.0371684
-0.0370063
-0.0367625
-0.0364517
-0.0360892
-0.0356902
-0.0352708
-0.0348373
-0.034347
-0.0338576
-0.033389
-0.0335635
-0.0335088
-0.0335254