/*--------------------------------*- C++ -*----------------------------------*\
  =========                 |
  \\      /  F ield         | OpenFOAM: The Open Source CFD Toolbox
   \\    /   O peration     | Website:  https://openfoam.org
    \\  /    A nd           | Version:  12
     \\/     M anipulation  |
\*---------------------------------------------------------------------------*/
FoamFile
{
    format      ascii;
    class       volScalarField;
    location    "40";
    object      pPrime2Mean;
}
// * * * * * * * * * * * * * * * * * * * * * * * * * * * * * * * * * * * * * //

dimensions      [0 4 -4 0 0 0 0];

internalField   nonuniform List<scalar> 
6750
(
0.0295391
0.0294882
0.029418
0.0293562
0.0293316
0.0296485
0.0295869
0.0294889
0.0293717
0.0292533
0.0298845
0.0298077
0.0296788
0.0295115
0.0293327
0.0302455
0.0301632
0.0300239
0.0298398
0.029643
0.0307168
0.0306421
0.0305148
0.0303444
0.030162
0.0312701
0.0312143
0.0311175
0.0309846
0.0308415
0.0318689
0.0318405
0.0317881
0.0317101
0.031625
0.0324748
0.0324792
0.0324801
0.0324684
0.0324542
0.033052
0.0330916
0.0331497
0.0332096
0.0332729
0.0335704
0.0336446
0.033759
0.03389
0.034031
0.0340075
0.0341133
0.0342791
0.0344754
0.0346883
0.034349
0.0344813
0.0346902
0.0349417
0.035216
0.0345885
0.0347409
0.0349825
0.0352759
0.0355975
0.0347262
0.0348917
0.0351542
0.0354749
0.0358276
0.0347679
0.0349392
0.0352111
0.0355443
0.0359114
0.0347229
0.0348933
0.0351639
0.0354956
0.035861
0.0345909
0.0347537
0.0350123
0.0353285
0.0356762
0.0343637
0.0345117
0.0347468
0.0350326
0.0353459
0.0340368
0.0341633
0.0343634
0.0346045
0.0348674
0.0336113
0.0337101
0.0338652
0.0340489
0.0342479
0.033095
0.0331614
0.0332638
0.0333806
0.0335058
0.0325035
0.0325348
0.03258
0.0326249
0.0326715
0.0318602
0.0318561
0.031844
0.0318171
0.0317861
0.0311959
0.0311592
0.031094
0.0310012
0.0308997
0.0305472
0.0304833
0.0303744
0.0302273
0.0300686
0.0299527
0.0298704
0.0297315
0.0295478
0.0293509
0.0294491
0.0293598
0.0292096
0.0290131
0.0288029
0.0290651
0.0289815
0.0288425
0.0286636
0.0284726
0.0288151
0.0287475
0.0286402
0.0285121
0.0283824
0.0287002
0.0286444
0.0285667
0.0284963
0.0284642
0.029349
0.0290655
0.0285241
0.027798
0.0268989
0.025833
0.0246045
0.0232189
0.0216886
0.0200336
0.0182816
0.0164693
0.0146396
0.0128384
0.0111108
0.00949646
0.00802638
0.00672043
0.00558676
0.00462311
0.00381925
0.00315942
0.00262522
0.00219796
0.00186017
0.00159597
0.00139254
0.0012394
0.0011287
0.00106306
0.0292814
0.028827
0.028182
0.0273766
0.0264127
0.0252943
0.0240299
0.0226319
0.021116
0.0195028
0.017819
0.0160968
0.0143719
0.0126816
0.0110615
0.00954238
0.00814898
0.00689744
0.00579588
0.00484454
0.00403684
0.00336175
0.00280533
0.0023526
0.00198887
0.00170109
0.00147735
0.00130664
0.00117884
0.00108819
0.0291449
0.0285921
0.0278692
0.0270004
0.0259857
0.0248316
0.0235473
0.0221464
0.0206467
0.0190701
0.0174425
0.0157935
0.0141537
0.0125539
0.0110221
0.00958281
0.00825505
0.00705212
0.00598119
0.00504374
0.00423627
0.00355128
0.0029785
0.00250608
0.00212161
0.00181309
0.00156932
0.00137897
0.00123141
0.00111803
0.0289791
0.0283634
0.0275784
0.0266606
0.0256149
0.0244442
0.0231565
0.0217651
0.0202882
0.0187473
0.0171674
0.0155755
0.0139991
0.0124646
0.0109959
0.00961368
0.00833403
0.00716836
0.00612323
0.00520054
0.00439813
0.0037104
0.0031292
0.00264462
0.00224578
0.0019214
0.00166011
0.00145113
0.00128313
0.00115376
0.0288049
0.0281397
0.0273051
0.0263499
0.0252853
0.0241096
0.0228294
0.0214563
0.020007
0.0185018
0.016964
0.0154184
0.0138901
0.0124032
0.0109795
0.00963784
0.00839312
0.00725591
0.00623235
0.00532436
0.00453011
0.00384471
0.00326088
0.00276967
0.002361
0.00202406
0.00174772
0.00152087
0.00133599
0.00119292
0.028648
0.0279415
0.0270698
0.0260868
0.0250086
0.0238344
0.0225666
0.0212152
0.0197944
0.0183222
0.0168201
0.0153108
0.0138179
0.0123643
0.0109711
0.00965688
0.00843637
0.00732003
0.00631383
0.00541945
0.00463483
0.00395491
0.00337238
0.00287845
0.00246329
0.00211659
0.00182726
0.0015853
0.00138606
0.00123136
0.0285273
0.0277863
0.026885
0.0258821
0.0247943
0.0236235
0.0223698
0.0210397
0.0196451
0.0182014
0.0167278
0.0152453
0.0137765
0.0123441
0.0109695
0.00967185
0.0084665
0.00736431
0.00637127
0.0054887
0.00471392
0.00404111
0.00346233
0.00296833
0.00254926
0.0021952
0.00189548
0.00164123
0.00142995
0.00126516
0.0284583
0.027687
0.0267615
0.0257423
0.0246493
0.0234816
0.0222408
0.0209293
0.0195565
0.0181353
0.0166822
0.0152171
0.0137622
0.0123402
0.0109739
0.00968334
0.00848517
0.00739092
0.00640676
0.0055336
0.00476789
0.00410272
0.00352907
0.00303693
0.0026163
0.00225665
0.00194902
0.0016855
0.00146426
0.00129062
0.028455
0.0276558
0.0267082
0.0256743
0.0245769
0.023412
0.0221814
0.0208847
0.019528
0.0181217
0.0166807
0.0152236
0.0137725
0.0123512
0.0109836
0.00969166
0.00849335
0.00740116
0.00642149
0.00555485
0.00479673
0.00413892
0.00357112
0.00308231
0.0026621
0.00229951
0.00198653
0.0017156
0.00148601
0.00130437
0.0285315
0.0277049
0.0267347
0.0256855
0.0245824
0.0234195
0.0221947
0.0209071
0.0195596
0.0181603
0.0167222
0.0152635
0.0138064
0.0123761
0.0109984
0.00969699
0.00849159
0.00739568
0.006416
0.00555264
0.0048001
0.00414884
0.00358715
0.00310292
0.00268454
0.00232162
0.00200543
0.00172866
0.00149201
0.00130322
0.0287021
0.0278471
0.0268517
0.0257837
0.0246715
0.0235074
0.0222841
0.0209991
0.019653
0.0182518
0.016807
0.0153366
0.0138636
0.0124148
0.011018
0.00969936
0.00848006
0.00737471
0.00639037
0.00552678
0.00477747
0.00413158
0.00357596
0.00309716
0.00268246
0.00232112
0.00200331
0.00172202
0.00147943
0.00128431
0.0289831
0.0280963
0.0270712
0.0259789
0.0248524
0.0236819
0.0224539
0.0211644
0.0198111
0.0183982
0.0169365
0.0154438
0.0139444
0.0124673
0.0110427
0.00969877
0.00845868
0.00733804
0.00634429
0.00547679
0.00472815
0.00408625
0.00353646
0.00306382
0.00265411
0.002296
0.00197769
0.00169299
0.00144564
0.00124521
0.0293934
0.0284696
0.0274083
0.0262844
0.0251373
0.0239516
0.0227113
0.0214085
0.0200383
0.0186031
0.0171131
0.0155868
0.0140501
0.0125343
0.0110725
0.00969518
0.00842717
0.00728521
0.00627713
0.00540194
0.00465134
0.00401191
0.0034675
0.00300139
0.00259746
0.00224298
0.00192579
0.00163898
0.00138839
0.001184
0.0299561
0.0289876
0.0278816
0.026716
0.0255383
0.0243279
0.023066
0.0217392
0.0203408
0.0188712
0.0173405
0.0157682
0.0141823
0.0126169
0.011108
0.00968853
0.0083851
0.00721553
0.00618804
0.00530137
0.00454617
0.00390765
0.00336793
0.00290816
0.00251074
0.00216063
0.00184552
0.00155809
0.0013062
0.00109952
0.0306991
0.0296761
0.0285145
0.0272948
0.0260747
0.0248274
0.0235309
0.0221677
0.0207274
0.0192094
0.0176237
0.0159913
0.014343
0.0127162
0.0111497
0.00967883
0.008332
0.00712818
0.00607603
0.00517397
0.00441157
0.00377234
0.00323639
0.00278284
0.002392
0.00204699
0.00173534
0.0014492
0.00119855
0.000991882
0.0316583
0.0305686
0.0293387
0.0280495
0.0267722
0.0254728
0.0241256
0.0227095
0.0212102
0.0196264
0.0179687
0.0162603
0.0145352
0.0128339
0.0111982
0.009666
0.00826731
0.00702238
0.00594013
0.00501858
0.00424614
0.00360431
0.00307105
0.00262349
0.00223948
0.00190073
0.0015945
0.00131232
0.00106637
0.000863101
0.0328804
0.0317098
0.0303968
0.0290194
0.0276658
0.0262945
0.0248765
0.023385
0.0218046
0.0201334
0.0183834
0.0165804
0.0147619
0.0129717
0.0112543
0.00964982
0.00819042
0.00689729
0.00577942
0.00483406
0.00404829
0.00340167
0.00286982
0.00242779
0.00205178
0.0017213
0.00142345
0.00114925
0.000913009
0.000718257
0.0344283
0.0331604
0.0317463
0.030256
0.0288013
0.0273323
0.0258151
0.0242197
0.0225299
0.0207444
0.0188773
0.016958
0.0150271
0.0131315
0.0113183
0.00963007
0.00810068
0.006752
0.00559279
0.00461913
0.00381657
0.00316282
0.00263135
0.00219498
0.00182835
0.00150964
0.0012249
0.000964896
0.000745946
0.000567505
0.0363883
0.0350019
0.033463
0.0318266
0.0302383
0.0286363
0.026982
0.0252454
0.0234102
0.0214766
0.0194624
0.0174004
0.0153346
0.0133148
0.0113905
0.00960651
0.00799752
0.00658567
0.00537902
0.0043724
0.00354975
0.00288695
0.00235552
0.00192602
0.00157165
0.00126988
0.00100605
0.000770179
0.000579928
0.000429291
0.038881
0.0373452
0.0356482
0.03382
0.0320526
0.030268
0.0284279
0.0265012
0.0244744
0.0223509
0.0201524
0.0179158
0.0156886
0.0135233
0.0114715
0.00957897
0.00788055
0.00639769
0.00513734
0.00409311
0.00324748
0.00257479
0.00204473
0.00162588
0.00128997
0.00101367
0.000782755
0.000586944
0.000442482
0.000336587
0.042075
0.0403436
0.0384417
0.0363586
0.0343436
0.0323095
0.0302167
0.0280363
0.0257583
0.0233915
0.0209626
0.0185131
0.0160937
0.0137591
0.0115619
0.00954735
0.00774933
0.00618761
0.00486761
0.00378165
0.00291118
0.00222951
0.00170496
0.00130461
0.000998654
0.000763459
0.000584888
0.000455649
0.000383892
0.00034884
0.0462065
0.0442094
0.0420361
0.0396048
0.0372476
0.0348702
0.0324332
0.0299127
0.0273054
0.024627
0.0219107
0.0192024
0.0165553
0.0140247
0.0116624
0.00951158
0.00760349
0.00595533
0.00457048
0.00344005
0.00254494
0.00185828
0.0013481
0.000980853
0.000725833
0.000559514
0.000468374
0.000448956
0.000492853
0.000571942
0.0515952
0.0492309
0.046695
0.0437798
0.0409475
0.0380951
0.035185
0.0322072
0.0291679
0.0260915
0.0230177
0.0199958
0.0170797
0.0143229
0.0117738
0.00947151
0.00744279
0.00570131
0.00424797
0.00307276
0.00215679
0.00147441
0.00099529
0.00068716
0.000519905
0.00047085
0.000526906
0.000690487
0.000917175
0.00118191
0.0586443
0.0557838
0.0527567
0.0491744
0.0456812
0.0421657
0.0386063
0.035014
0.0314088
0.0278253
0.0243082
0.0209073
0.017674
0.0146566
0.0118967
0.0094266
0.0072669
0.00542654
0.00390363
0.00268742
0.00176043
0.00110044
0.000681962
0.0004778
0.000461688
0.000612139
0.000915996
0.00137937
0.00188724
0.0024397
0.0678224
0.0643044
0.0606363
0.0561513
0.0517427
0.0473016
0.0428555
0.0384426
0.034101
0.0298745
0.0258093
0.0219516
0.0183448
0.0150273
0.0120301
0.00937502
0.00707426
0.00513111
0.00354107
0.00229378
0.00137532
0.000770251
0.000462847
0.000436924
0.000675337
0.00115923
0.00186816
0.00280183
0.00372132
0.00468319
0.0796169
0.0752422
0.0707446
0.0650566
0.0593943
0.0537036
0.0480773
0.0425945
0.0373132
0.0322838
0.0275487
0.0231439
0.0190989
0.0154363
0.0121711
0.009311
0.00685774
0.00480838
0.00315694
0.00189613
0.00101957
0.000523865
0.000409525
0.000678715
0.00132935
0.00234457
0.00368385
0.00531275
0.00679886
0.00830892
0.0942893
0.0888018
0.0831916
0.0759635
0.0687036
0.0614489
0.0543619
0.047569
0.0411469
0.0351482
0.0296078
0.0245476
0.0199793
0.0159056
0.0123227
0.0092223
0.00659473
0.00443175
0.00272828
0.00148417
0.000705868
0.000407703
0.000611403
0.00134087
0.00260993
0.00439921
0.00663501
0.0092168
0.0114909
0.0137184
0.112861
0.105504
0.0980808
0.0890463
0.0800223
0.0710649
0.0623656
0.054077
0.0462972
0.0390944
0.032511
0.0265677
0.0212677
0.0166016
0.0125519
0.00909894
0.00622603
0.00392301
0.00218903
0.00103321
0.000474041
0.000537275
0.00125131
0.00263899
0.0047049
0.00741542
0.0106798
0.0143868
0.0179107
0.021403
0.141646
0.132165
0.122562
0.111422
0.100182
0.0888292
0.0776229
0.0668147
0.0566011
0.0471357
0.0385197
0.0308062
0.0240097
0.0181186
0.013109
0.00895598
0.00564311
0.0031668
0.00153967
0.000786155
0.000933879
0.00200185
0.00398549
0.00684218
0.0104817
0.014752
0.0194572
0.0244848
0.0289387
0.0334786
0.231135
0.214132
0.194802
0.175134
0.155509
0.135924
0.116812
0.0985908
0.0816012
0.0661092
0.0522853
0.0402036
0.0298653
0.0212279
0.014236
0.00884681
0.00504947
0.00287442
0.00238583
0.00366722
0.00679672
0.011815
0.0186943
0.0273148
0.0374582
0.0488085
0.0609685
0.0738406
0.0871098
0.0992175
0.0293302
0.0291959
0.0290582
0.0289403
0.028846
0.0287794
0.0287506
0.0287715
0.0288552
0.029016
0.0292695
0.0296337
0.0301297
0.0307826
0.0316236
0.0326915
0.0340365
0.0357264
0.0378558
0.0405577
0.0440207
0.0485097
0.0543825
0.0620794
0.072104
0.0850027
0.101362
0.122944
0.15555
0.250165
0.02916
0.029068
0.0289898
0.0289345
0.0289162
0.0289398
0.0290128
0.0291445
0.0293463
0.0296313
0.0300155
0.0305175
0.0311601
0.0319708
0.0329841
0.0342431
0.0358046
0.0377454
0.0401708
0.0432279
0.0471228
0.0521422
0.0586683
0.0671669
0.0781642
0.0922962
0.110588
0.135156
0.170568
0.270599
0.0292442
0.0292466
0.0292645
0.0293
0.0293686
0.0294797
0.0296434
0.0298712
0.0301754
0.0305705
0.0310733
0.0317038
0.0324863
0.0334507
0.0346343
0.0360847
0.0378653
0.040061
0.0427877
0.0462053
0.0505355
0.0560847
0.0632564
0.0725334
0.0844543
0.0997394
0.119807
0.147109
0.184497
0.293268
0.0295882
0.0296869
0.0297999
0.0299284
0.0300905
0.0302974
0.0305607
0.0308928
0.0313076
0.0318208
0.0324507
0.0332189
0.0341516
0.0352808
0.0366471
0.0383021
0.0403145
0.0427758
0.0458092
0.0495819
0.0543236
0.0603472
0.0680582
0.0779263
0.0904629
0.10646
0.127861
0.157964
0.196717
0.317609
0.030152
0.0303375
0.0305411
0.030762
0.0310196
0.031327
0.0316968
0.0321426
0.032679
0.0333229
0.034094
0.0350155
0.0361155
0.0374285
0.038998
0.0408797
0.0431473
0.0458977
0.049259
0.0534028
0.0585606
0.0650435
0.0732454
0.0836024
0.0965745
0.113015
0.135512
0.168684
0.207784
0.343348
0.0308834
0.031145
0.0314324
0.0317433
0.0320965
0.0325061
0.0329862
0.0335511
0.0342167
0.0350005
0.0359235
0.0370102
0.0382906
0.0398013
0.0415883
0.0437111
0.0462471
0.049297
0.0529915
0.0575021
0.0630568
0.0699564
0.078571
0.0892862
0.102493
0.119105
0.142512
0.179397
0.21777
0.371445
0.0317238
0.0320513
0.0324149
0.0328115
0.0332584
0.0337702
0.0343615
0.0350477
0.0358454
0.0367734
0.0378535
0.0391114
0.0405783
0.0422927
0.0443028
0.046671
0.049477
0.0528232
0.0568406
0.0616974
0.0676136
0.0748733
0.083815
0.09476
0.108015
0.12455
0.148703
0.190328
0.22695
0.403252
0.0326131
0.0329973
0.0334289
0.0339052
0.0344418
0.0350528
0.0357532
0.0365589
0.0374874
0.0385582
0.039794
0.0412217
0.0428731
0.0447881
0.0470169
0.0496233
0.0526883
0.0563143
0.0606302
0.0657994
0.0720311
0.0795906
0.0887805
0.0998472
0.112995
0.129239
0.153963
0.20169
0.235704
0.440217
0.0334924
0.0339252
0.0344164
0.0349652
0.035585
0.0362894
0.0370932
0.0380127
0.0390656
0.0402723
0.041656
0.0432443
0.0450699
0.0471734
0.0496063
0.0524329
0.0557343
0.0596116
0.064191
0.0696297
0.0761263
0.0839282
0.0933022
0.104411
0.117338
0.133123
0.158197
0.213632
0.244492
0.483507
0.0343087
0.0347825
0.0353252
0.0359379
0.0366323
0.0374214
0.0383195
0.0393428
0.0405092
0.0418394
0.0433571
0.0450901
0.0470721
0.0493442
0.051958
0.0549777
0.0584836
0.0625754
0.0673758
0.0730366
0.0797471
0.0877405
0.0972518
0.108354
0.120989
0.136209
0.161376
0.226182
0.25379
0.533442
0.0350188
0.0355265
0.0361121
0.0367791
0.0375377
0.0384
0.03938
0.0404934
0.0417581
0.0431948
0.0448275
0.0466843
0.0487992
0.0512136
0.0539787
0.0571583
0.0608316
0.0650964
0.0700728
0.0759076
0.0827834
0.0909243
0.100541
0.111614
0.123928
0.138547
0.163541
0.23918
0.263938
0.588807
0.0355911
0.0361254
0.0367454
0.0374562
0.0382671
0.0391892
0.040236
0.0414227
0.0427672
0.04429
0.0460153
0.0479713
0.0501921
0.0527189
0.0556025
0.0589059
0.0627074
0.0671034
0.0722114
0.0781743
0.0851707
0.0934207
0.103119
0.114161
0.126159
0.140208
0.164809
0.252188
0.274927
0.646182
0.0360067
0.0365606
0.0372063
0.0379499
0.0387999
0.0397669
0.0408636
0.042105
0.0435087
0.0450954
0.0468891
0.0489181
0.0512162
0.0538243
0.0567928
0.0601844
0.0640764
0.0685638
0.0737622
0.079812
0.0868891
0.0952141
0.104975
0.115991
0.127706
0.141271
0.165357
0.264467
0.286227
0.700116
0.0362592
0.0368259
0.0374883
0.0382535
0.0391292
0.0401254
0.0412544
0.0425311
0.0439732
0.0456012
0.0474389
0.0495146
0.0518616
0.0545209
0.0575426
0.0609889
0.0649366
0.06948
0.0747329
0.0808339
0.0879581
0.0963285
0.106132
0.117131
0.128622
0.141827
0.165386
0.274777
0.296505
0.74386
0.0363534
0.0369264
0.0375969
0.0383726
0.0392605
0.0402706
0.0414148
0.0427083
0.0441685
0.0458159
0.0476743
0.0497716
0.0521412
0.0548239
0.05787
0.0613415
0.0653151
0.0698844
0.0751625
0.0812871
0.088433
0.0968256
0.106654
0.11765
0.129019
0.142032
0.16519
0.280702
0.302991
0.768783
0.0363022
0.0368754
0.0375462
0.038322
0.0392099
0.0402197
0.0413636
0.0426565
0.0441161
0.0457628
0.0476202
0.0497161
0.0520843
0.0547656
0.0578106
0.0612817
0.0652554
0.0698254
0.0751049
0.0812315
0.0883806
0.0967777
0.106612
0.117613
0.128987
0.142006
0.165133
0.280594
0.302913
0.769737
0.0361053
0.0366728
0.037336
0.0381019
0.0389776
0.0399733
0.0411015
0.042377
0.0438174
0.0454433
0.0472781
0.0493501
0.0516931
0.0543485
0.0573673
0.0608123
0.0647606
0.0693063
0.0745635
0.080671
0.0878048
0.0961889
0.10601
0.117025
0.128529
0.14175
0.165224
0.274491
0.296303
0.746596
0.0357511
0.0363064
0.0369537
0.0376989
0.0385499
0.0395169
0.0406128
0.0418528
0.0432543
0.0448379
0.0466272
0.0486508
0.0509429
0.0535454
0.0565097
0.0598995
0.0637926
0.0682845
0.0734907
0.0795519
0.0866455
0.094993
0.104781
0.115822
0.127559
0.141151
0.165125
0.264099
0.285973
0.704284
0.0352372
0.0357736
0.0363963
0.03711
0.0379231
0.0388466
0.0398936
0.0410794
0.0424217
0.0439409
0.045661
0.0476106
0.0498242
0.0523444
0.0552231
0.0585246
0.0623282
0.0667307
0.07185
0.0778297
0.0848492
0.0931291
0.102862
0.113936
0.125967
0.140057
0.164558
0.251852
0.274699
0.651381
0.0345722
0.0350827
0.0356722
0.0363437
0.0371063
0.0379718
0.0389536
0.0400672
0.0413305
0.0427638
0.0443913
0.0462413
0.0483488
0.0507562
0.0535163
0.0566943
0.0603705
0.0646439
0.0696349
0.075491
0.0823953
0.0905709
0.100225
0.111336
0.123699
0.13838
0.163327
0.238972
0.2638
0.594683
0.0337769
0.0342548
0.0348026
0.0354215
0.0361219
0.0369161
0.037818
0.0388434
0.0400098
0.0413378
0.0428509
0.0445777
0.0465526
0.0488181
0.0514273
0.054446
0.0579558
0.0620574
0.0668748
0.0725598
0.0793016
0.0873313
0.0968809
0.108026
0.120729
0.136044
0.161256
0.226173
0.253794
0.539687
0.0328847
0.0333231
0.0338212
0.0343781
0.0350059
0.0357176
0.0365274
0.0374512
0.0385062
0.0397125
0.0410934
0.0426766
0.0444962
0.0465941
0.0490231
0.0518493
0.0551551
0.059043
0.06364
0.0691035
0.0756308
0.0834672
0.0928779
0.104035
0.117053
0.132981
0.158216
0.213856
0.24468
0.489883
0.0319396
0.0323317
0.0327723
0.033259
0.0338058
0.0344263
0.0351351
0.0359476
0.0368807
0.0379538
0.0391892
0.0406139
0.042261
0.0441712
0.0463967
0.0490029
0.0520723
0.0557086
0.0600411
0.0652331
0.071492
0.0790811
0.0883051
0.0994283
0.112696
0.129142
0.154148
0.202153
0.236114
0.446569
0.0309948
0.0313331
0.0317085
0.032118
0.0325776
0.0331012
0.0337034
0.034399
0.0352042
0.0361375
0.0372201
0.0384778
0.0399421
0.0416526
0.0436593
0.0460266
0.0488362
0.0521912
0.0562227
0.0610982
0.0670358
0.074319
0.0832925
0.0943045
0.107713
0.124518
0.149064
0.191013
0.22762
0.409508
0.030109
0.0303847
0.0306871
0.0310136
0.0313819
0.0318056
0.0322989
0.0328757
0.0335514
0.0343434
0.0352718
0.0363607
0.0376401
0.0391472
0.0409302
0.0430511
0.0455889
0.0486454
0.0523506
0.0568749
0.0624447
0.0693619
0.0780079
0.0888035
0.1022
0.119151
0.143041
0.180283
0.21874
0.37761
0.0293419
0.029545
0.0297666
0.0300055
0.0302801
0.0306032
0.0309878
0.031447
0.0319954
0.0326493
0.0334276
0.0343527
0.0354523
0.0367619
0.0383267
0.0402051
0.042473
0.0452277
0.0485966
0.0527495
0.0579174
0.0644148
0.0726516
0.0831056
0.0963045
0.113144
0.136193
0.169752
0.209099
0.349486
0.0287516
0.0288712
0.0290046
0.0291525
0.0293322
0.0295551
0.029833
0.0301784
0.030605
0.031128
0.0317649
0.0325366
0.0334688
0.0345942
0.0359552
0.0376062
0.0396179
0.0420825
0.0451216
0.0489011
0.0536514
0.0596915
0.0674465
0.0774321
0.0902296
0.106676
0.128675
0.159206
0.198421
0.323826
0.0283896
0.0284161
0.028456
0.0285106
0.0285953
0.0287201
0.0288957
0.0291338
0.0294467
0.0298486
0.0303557
0.0309876
0.0317684
0.0327285
0.0339069
0.0353536
0.037134
0.0393335
0.0420665
0.0454924
0.0498358
0.0554112
0.0626442
0.0720648
0.0842773
0.100046
0.120737
0.148526
0.18663
0.299679
0.0282959
0.0282306
0.0281739
0.028135
0.0281284
0.0281603
0.0282393
0.0283751
0.0285792
0.028865
0.0292481
0.0297476
0.0303863
0.0311926
0.0322019
0.0334593
0.0350229
0.0369701
0.0394061
0.0424788
0.0463984
0.0514612
0.0580715
0.0667392
0.0780457
0.092664
0.111576
0.136692
0.173038
0.277175
0.0284737
0.0283629
0.0282392
0.0281296
0.0280395
0.0279735
0.0279421
0.0279582
0.0280353
0.0281885
0.0284339
0.02879
0.0292788
0.0299266
0.0307653
0.0318343
0.0331844
0.0348845
0.0370312
0.0397598
0.0432626
0.0478141
0.0537921
0.0616775
0.0720133
0.0853787
0.102342
0.124533
0.158233
0.256863
0.237756
0.220459
0.200562
0.180169
0.159791
0.139491
0.11973
0.100942
0.0834754
0.067596
0.0534693
0.0411612
0.0306635
0.0219246
0.0148809
0.00948358
0.00571711
0.00360983
0.00322425
0.00464194
0.00793803
0.0131469
0.0202299
0.0290505
0.0393685
0.0508429
0.0630544
0.0758935
0.0890345
0.100995
0.14445
0.135041
0.125326
0.113879
0.102278
0.090573
0.0790519
0.0679802
0.0575577
0.0479342
0.0392038
0.0314111
0.0245631
0.018642
0.0136184
0.0094632
0.00615613
0.00368936
0.00207201
0.00132548
0.00147463
0.00253614
0.00450351
0.00733229
0.0109306
0.0151433
0.0197757
0.0247232
0.0290469
0.0335228
0.114524
0.10729
0.0998823
0.0907257
0.0815115
0.0723474
0.0634502
0.0549889
0.0470687
0.0397578
0.0330953
0.0270967
0.02176
0.0170704
0.0130062
0.00954345
0.00666066
0.00434253
0.00258264
0.00138468
0.000762725
0.000740188
0.00134596
0.00260641
0.00453257
0.00709927
0.0102281
0.013824
0.017245
0.0207085
0.0952772
0.089859
0.0842585
0.0769561
0.0695928
0.0622343
0.0550533
0.0481815
0.0416969
0.0356513
0.0300774
0.0249948
0.0204126
0.0163312
0.0127441
0.00964021
0.00700637
0.0048296
0.00309947
0.0018108
0.000966944
0.000582781
0.000685047
0.00130618
0.00246945
0.00416309
0.00631802
0.00883715
0.011079
0.0133079
0.0799981
0.0756509
0.0711427
0.0654166
0.0597261
0.054025
0.0484005
0.0429257
0.0376543
0.0326342
0.027907
0.0235089
0.01947
0.0158129
0.012552
0.00969375
0.00723715
0.00517557
0.00349865
0.00219539
0.00125805
0.000685993
0.00048716
0.00067432
0.00125559
0.00222015
0.00352695
0.00513496
0.00661731
0.00812663
0.0677483
0.0642397
0.0605583
0.0560666
0.0516789
0.0472883
0.0429058
0.0385586
0.0342763
0.0300986
0.0260711
0.0222412
0.0186545
0.0153513
0.0123632
0.00971157
0.00740693
0.00544987
0.0038331
0.00254453
0.00157089
0.000900738
0.000525586
0.000438097
0.000628741
0.00108265
0.00177822
0.00270851
0.00363415
0.00459789
0.058263
0.055413
0.0523836
0.0488199
0.0453747
0.0419359
0.0384682
0.0349703
0.0314521
0.027942
0.0244827
0.0211251
0.0179228
0.0149265
0.0121795
0.00971383
0.00754929
0.00569334
0.00414309
0.00288811
0.00191323
0.00120062
0.00073066
0.000481923
0.000432367
0.000562452
0.000858449
0.00132372
0.00184381
0.00240911
0.0510197
0.0486744
0.0461498
0.0432682
0.0404946
0.0377269
0.0349164
0.0320433
0.0291034
0.0261142
0.0231114
0.0201442
0.0172682
0.0145393
0.0120073
0.00971161
0.00767868
0.00592183
0.00444257
0.00323282
0.00227707
0.00155394
0.0010374
0.000698387
0.000508351
0.000444845
0.000494349
0.000658757
0.00089659
0.00117704
0.0455138
0.043539
0.041386
0.0389947
0.0366991
0.0344059
0.0320679
0.0296534
0.0271499
0.0245657
0.021929
0.0192841
0.0166851
0.0141891
0.011849
0.00970856
0.00779886
0.00613769
0.00473018
0.00357049
0.00264347
0.00192623
0.00138991
0.00100248
0.000733135
0.000557222
0.000460362
0.000438865
0.000487845
0.000577074
0.0413059
0.039596
0.0377181
0.03568
0.033725
0.0317716
0.029774
0.0276972
0.0255236
0.0232543
0.0209107
0.0185315
0.0161672
0.0138737
0.0117045
0.0097051
0.0079096
0.00633881
0.00500064
0.00389108
0.00299582
0.00229192
0.00175003
0.00133777
0.00102422
0.000783743
0.000600599
0.000466448
0.000393112
0.000360272
0.0380595
0.0365419
0.0348697
0.0330855
0.0313771
0.0296693
0.0279201
0.0260935
0.0241697
0.0221451
0.0200356
0.0178747
0.0157087
0.0135906
0.0115726
0.00970059
0.00800963
0.00652251
0.00524907
0.0041869
0.00332282
0.00263476
0.00209426
0.0016699
0.00133165
0.00105359
0.000819041
0.000616565
0.000465321
0.00035489
0.0355288
0.0341558
0.0326409
0.0310468
0.0295162
0.027987
0.0264195
0.0247791
0.0230443
0.0212093
0.019286
0.0173037
0.0153045
0.0133375
0.0114526
0.00969425
0.00809774
0.00668668
0.00547214
0.00445313
0.00361777
0.00294537
0.00240908
0.00197905
0.00162645
0.00132577
0.00105906
0.00081552
0.000615021
0.000455046
0.0335414
0.0322806
0.0308883
0.0294382
0.0280387
0.0266412
0.0252072
0.0237045
0.0221118
0.0204226
0.0186466
0.0168098
0.0149501
0.0131125
0.0113434
0.00968552
0.00817317
0.00683009
0.00566812
0.00468738
0.00387738
0.00321904
0.00268732
0.00225432
0.00189239
0.0015765
0.00128993
0.00102213
0.000791213
0.00060058
0.0319753
0.0308048
0.0295108
0.0281719
0.0268717
0.0255695
0.0242326
0.0228299
0.0213423
0.0197643
0.0181044
0.0163856
0.0146417
0.0129138
0.0112446
0.00967419
0.00823575
0.00695254
0.0058367
0.0048892
0.00410086
0.00345412
0.00292572
0.00248986
0.0021204
0.00179412
0.00149554
0.00121429
0.000966083
0.000758137
0.0307425
0.0296473
0.0284342
0.0271821
0.0259564
0.0247226
0.0234537
0.022122
0.0207111
0.0192171
0.0176481
0.0160243
0.0143759
0.0127399
0.0111556
0.00966043
0.00828597
0.00705469
0.00597868
0.00505952
0.00428903
0.00365102
0.00312409
0.00268452
0.00230813
0.00197446
0.00166868
0.00138112
0.00112492
0.000909342
0.0297794
0.0287478
0.0276015
0.0264169
0.0252459
0.0240602
0.0228366
0.0215536
0.0201977
0.0187665
0.0172681
0.01572
0.0141493
0.0125892
0.0110761
0.00964469
0.00832479
0.00713783
0.00609562
0.00520002
0.00444358
0.00381149
0.00328402
0.00283955
0.00245677
0.00211743
0.00180757
0.00151847
0.00126062
0.00104422
0.0290384
0.0280601
0.0269678
0.0258348
0.0247025
0.0235486
0.0223539
0.0211029
0.0197855
0.0184008
0.016956
0.0154672
0.0139585
0.0124602
0.0110057
0.00962752
0.00835334
0.00720353
0.00618935
0.00531265
0.0045667
0.00393787
0.00340819
0.0029582
0.0025693
0.00222545
0.00191361
0.00162592
0.00137037
0.00115732
0.0284823
0.0275483
0.0264984
0.0254033
0.0242971
0.0231627
0.021985
0.0207538
0.0194621
0.01811
0.0167046
0.0152607
0.0138002
0.0123512
0.0109442
0.00960942
0.00837278
0.00725332
0.00626162
0.00539943
0.00466058
0.00403269
0.00349963
0.00304411
0.00264935
0.00230188
0.00198935
0.00170468
0.00145362
0.00124604
0.0280815
0.0271837
0.026167
0.0250985
0.0240082
0.0228844
0.0217153
0.0204943
0.0192176
0.0178863
0.0165078
0.0150961
0.0136718
0.0122607
0.010891
0.00959082
0.00838405
0.00728849
0.00631396
0.0054621
0.00472724
0.00409829
0.0035609
0.00309973
0.00269998
0.00234975
0.00203721
0.00175642
0.00151101
0.00130989
0.0278115
0.0269434
0.0259527
0.0249033
0.0238215
0.0227015
0.0215342
0.0203156
0.0190444
0.0177234
0.0163605
0.0149698
0.0135707
0.0121873
0.0108458
0.0095719
0.00838784
0.00731004
0.00634759
0.00550204
0.00476831
0.00413653
0.00359412
0.00312752
0.00272347
0.00237064
0.00205949
0.00178319
0.00154406
0.00135001
0.0276524
0.0268097
0.0258401
0.0248049
0.0237274
0.0226057
0.0214344
0.0202111
0.018937
0.0176166
0.0162592
0.014879
0.0134951
0.01213
0.010808
0.00955271
0.00838456
0.00731865
0.00636336
0.00552025
0.00478493
0.00414878
0.00360077
0.00312895
0.00272163
0.00236774
0.00205874
0.00178746
0.00155506
0.00136841
0.0275872
0.0267684
0.0258172
0.0247935
0.0237183
0.022591
0.0214106
0.0201762
0.0188913
0.0175627
0.0162012
0.0148221
0.0134439
0.0120882
0.0107773
0.00953316
0.00837432
0.00731458
0.00636172
0.00551735
0.00477789
0.00413596
0.003582
0.00310545
0.00269607
0.00234256
0.00203699
0.00177179
0.00154674
0.00136789
0.0276006
0.0268065
0.0258734
0.0248605
0.0237871
0.0226531
0.021459
0.0202076
0.0189047
0.0175597
0.0161854
0.0147981
0.0134166
0.0120614
0.0107536
0.00951306
0.0083569
0.00729773
0.00634271
0.00549363
0.00474771
0.00409885
0.00353884
0.0030584
0.00264782
0.0022969
0.00199673
0.00173871
0.00152211
0.00135154
0.0276777
0.0269115
0.0259993
0.0249989
0.0239278
0.0227864
0.021576
0.0203029
0.0189758
0.0176069
0.0162117
0.0148076
0.0134137
0.0120502
0.0107368
0.00949206
0.00833175
0.00726745
0.00630588
0.00544895
0.00469471
0.00403823
0.0034725
0.00298918
0.00257901
0.00223278
0.00193972
0.00169126
0.0014845
0.00132281
0.0278036
0.0270705
0.0261856
0.025202
0.0241364
0.0229869
0.0217586
0.0204604
0.0191042
0.0177054
0.0162817
0.0148523
0.0134368
0.0120554
0.0107271
0.00946969
0.00829785
0.00722252
0.00625011
0.00538269
0.00461897
0.00395497
0.00338449
0.00289987
0.00249224
0.00215201
0.00186878
0.00163217
0.00143705
0.00128546
0.0279621
0.0272702
0.0264213
0.0254628
0.024405
0.0232498
0.0220039
0.0206792
0.0192912
0.0178577
0.016399
0.0149359
0.013489
0.0120789
0.0107252
0.00944524
0.00825355
0.00716082
0.0061734
0.00529347
0.00452008
0.00384976
0.00327657
0.00279294
0.00239006
0.00205814
0.00178673
0.0015646
0.00138342
0.00124349
0.0281344
0.0274938
0.0266931
0.0257682
0.0247251
0.0235686
0.0223087
0.0209598
0.0195403
0.0180696
0.0165702
0.0150648
0.0135755
0.0121242
0.0107321
0.00941767
0.00819618
0.00707884
0.00607222
0.00517853
0.00439661
0.00372269
0.00315027
0.00267107
0.00227587
0.00195461
0.0016964
0.00149083
0.00132728
0.00120125
0.0282967
0.027722
0.0269826
0.0261011
0.0250825
0.0239348
0.0226702
0.0213045
0.0198576
0.0183503
0.0168059
0.0152492
0.0137044
0.0121964
0.0107496
0.00938552
0.00812191
0.00697151
0.00594152
0.0050339
0.00424635
0.00357343
0.003007
0.0025372
0.00215375
0.00184607
0.00160357
0.00141567
0.00127186
0.00116313
0.0284327
0.0279591
0.0272944
0.0264701
0.0254927
0.0243708
0.0231163
0.0217447
0.0202764
0.0187326
0.0171364
0.0155143
0.0138945
0.0123069
0.0107815
0.009346
0.00802309
0.00682833
0.00576991
0.00484901
0.00406052
0.0033954
0.00284238
0.00238908
0.00202354
0.0017342
0.00150981
0.0013405
0.00121619
0.0011306
0.0285159
0.0282086
0.0276371
0.0268802
0.0259553
0.0248722
0.0236427
0.0222786
0.0207949
0.0192128
0.0175554
0.0158523
0.014138
0.0124496
0.0108259
0.00930224
0.00790775
0.00666164
0.00557252
0.0046396
0.00385453
0.0032035
0.00267088
0.00224091
0.00189833
0.00162955
0.00142346
0.00127021
0.00116187
0.00110105
0.113434
0.0402856
0.0258215
0.0165737
0.0102233
0.0059773
0.00327545
0.001689
0.000859259
0.000494294
0.000389697
0.000421315
0.0005189
0.000643068
0.000771383
0.000891083
0.000995284
0.0010807
0.0011464
0.00119296
0.00122174
0.00123464
0.00123395
0.00122212
0.00120164
0.00117494
0.00114429
0.00111142
0.00107861
0.00105212
0.129717
0.0478044
0.0310224
0.020171
0.0126968
0.00772451
0.0044786
0.00247535