/*--------------------------------*- C++ -*----------------------------------*\
  =========                 |
  \\      /  F ield         | OpenFOAM: The Open Source CFD Toolbox
   \\    /   O peration     | Website:  https://openfoam.org
    \\  /    A nd           | Version:  12
     \\/     M anipulation  |
\*---------------------------------------------------------------------------*/
FoamFile
{
    format      ascii;
    class       volVectorField;
    location    "40";
    object      U;
}
// * * * * * * * * * * * * * * * * * * * * * * * * * * * * * * * * * * * * * //

dimensions      [0 1 -1 0 0 0 0];

internalField   nonuniform List<vector> 
6750
(
(0.200082 -0.00331095 0)
(0.20042 -0.00997725 0)
(0.200756 -0.0159687 0)
(0.201045 -0.0213921 0)
(0.200981 -0.0263798 0)
(0.200036 -0.00374479 0)
(0.200305 -0.0106822 0)
(0.200542 -0.016635 0)
(0.200661 -0.0218003 0)
(0.200593 -0.0263072 0)
(0.200025 -0.0039185 0)
(0.200134 -0.0109412 0)
(0.200166 -0.0167863 0)
(0.200068 -0.0216939 0)
(0.19986 -0.0258079 0)
(0.200008 -0.00394936 0)
(0.199951 -0.0108961 0)
(0.199772 -0.0165652 0)
(0.199476 -0.0212312 0)
(0.199119 -0.0250723 0)
(0.199993 -0.00387213 0)
(0.199783 -0.0106022 0)
(0.199405 -0.0160305 0)
(0.198912 -0.020454 0)
(0.198391 -0.0240723 0)
(0.19998 -0.00370548 0)
(0.19963 -0.0100968 0)
(0.19906 -0.0152185 0)
(0.198369 -0.0193744 0)
(0.197665 -0.0227693 0)
(0.199969 -0.00346487 0)
(0.199487 -0.00940988 0)
(0.19873 -0.0141579 0)
(0.197836 -0.0180062 0)
(0.196936 -0.0211534 0)
(0.19996 -0.00316233 0)
(0.199353 -0.00856695 0)
(0.198413 -0.0128765 0)
(0.197318 -0.0163711 0)
(0.196217 -0.0192354 0)
(0.199951 -0.00280835 0)
(0.199227 -0.00759306 0)
(0.198115 -0.011406 0)
(0.196828 -0.0145018 0)
(0.195529 -0.017046 0)
(0.199943 -0.00241353 0)
(0.199114 -0.00651524 0)
(0.197846 -0.00978382 0)
(0.196382 -0.0124418 0)
(0.1949 -0.0146319 0)
(0.199937 -0.001989 0)
(0.199017 -0.00536252 0)
(0.197614 -0.00805192 0)
(0.195998 -0.0102421 0)
(0.194355 -0.012051 0)
(0.199932 -0.00154615 0)
(0.198939 -0.00416466 0)
(0.197427 -0.00625402 0)
(0.195687 -0.0079575 0)
(0.193913 -0.00936692 0)
(0.199928 -0.00109597 0)
(0.198882 -0.00295041 0)
(0.197289 -0.00443273 0)
(0.195458 -0.00564154 0)
(0.193585 -0.00664276 0)
(0.199924 -0.000648228 0)
(0.198849 -0.00174613 0)
(0.197201 -0.00262655 0)
(0.195311 -0.00334302 0)
(0.193374 -0.0039367 0)
(0.199914 -0.000215327 0)
(0.198844 -0.000572624 0)
(0.197162 -0.000866006 0)
(0.195243 -0.00110256 0)
(0.193275 -0.00129837 0)
(0.199914 0.000214598 0)
(0.198844 0.00057081 0)
(0.197162 0.000863296 0)
(0.195243 0.00109913 0)
(0.193275 0.00129435 0)
(0.199924 0.000647502 0)
(0.198849 0.00174432 0)
(0.197201 0.00262385 0)
(0.195311 0.0033396 0)
(0.193374 0.00393269 0)
(0.199928 0.00109525 0)
(0.198882 0.00294861 0)
(0.197289 0.00443005 0)
(0.195458 0.00563814 0)
(0.193585 0.00663878 0)
(0.199932 0.00154545 0)
(0.198939 0.00416288 0)
(0.197427 0.00625137 0)
(0.195687 0.00795413 0)
(0.193913 0.00936297 0)
(0.199937 0.00198831 0)
(0.199017 0.00536077 0)
(0.197614 0.00804931 0)
(0.195998 0.0102388 0)
(0.194355 0.0120471 0)
(0.199943 0.00241286 0)
(0.199114 0.00651353 0)
(0.197846 0.00978125 0)
(0.196382 0.0124385 0)
(0.1949 0.0146281 0)
(0.199951 0.0028077 0)
(0.199227 0.00759139 0)
(0.198115 0.0114035 0)
(0.196828 0.0144986 0)
(0.195529 0.0170423 0)
(0.19996 0.0031617 0)
(0.199353 0.00856531 0)
(0.198413 0.012874 0)
(0.197318 0.016368 0)
(0.196217 0.0192317 0)
(0.199969 0.00346427 0)
(0.199487 0.00940828 0)
(0.198729 0.0141555 0)
(0.197836 0.0180032 0)
(0.196936 0.0211497 0)
(0.19998 0.0037049 0)
(0.19963 0.0100952 0)
(0.19906 0.0152161 0)
(0.198369 0.0193714 0)
(0.197665 0.0227658 0)
(0.199993 0.00387157 0)
(0.199783 0.0106007 0)
(0.199405 0.0160282 0)
(0.198912 0.020451 0)
(0.198391 0.0240687 0)
(0.200008 0.00394882 0)
(0.199951 0.0108946 0)
(0.199772 0.0165629 0)
(0.199476 0.0212282 0)
(0.199119 0.0250687 0)
(0.200025 0.00391799 0)
(0.200133 0.0109398 0)
(0.200166 0.0167841 0)
(0.200068 0.0216909 0)
(0.19986 0.0258044 0)
(0.200036 0.00374432 0)
(0.200305 0.0106808 0)
(0.200542 0.0166328 0)
(0.200661 0.0217974 0)
(0.200593 0.0263037 0)
(0.200082 0.00331053 0)
(0.20042 0.00997593 0)
(0.200756 0.0159666 0)
(0.201045 0.0213892 0)
(0.200981 0.0263762 0)
(0.199197 -0.0372687 0)
(0.197797 -0.0421891 0)
(0.196687 -0.0465363 0)
(0.196034 -0.0502838 -5.63693e-22)
(0.195687 -0.0533485 0)
(0.19558 -0.0556943 0)
(0.195697 -0.057277 3.64974e-20)
(0.196031 -0.0580224 -3.66563e-20)
(0.196516 -0.0578616 -2.80034e-22)
(0.197137 -0.0566986 -1.80762e-20)
(0.197837 -0.0543634 1.65499e-22)
(0.198538 -0.0508479 1.66165e-22)
(0.19916 -0.0461487 9.11117e-21)
(0.199618 -0.040332 8.96835e-21)
(0.199836 -0.0335408 2.10318e-20)
(0.199755 -0.0259899 -2.10398e-20)
(0.199346 -0.017949 8.66205e-21)
(0.198608 -0.00971816 8.37604e-21)
(0.197571 -0.00159841 -1.25312e-22)
(0.196291 0.00614135 -1.19387e-22)
(0.194844 0.0132684 -1.66867e-20)
(0.193312 0.019608 2.55311e-22)
(0.191777 0.0250485 -3.22008e-20)
(0.190316 0.0295358 3.19161e-20)
(0.188991 0.033064 0)
(0.187855 0.0356633 0)
(0.186944 0.0373877 4.70346e-22)
(0.186297 0.0383109 0)
(0.185957 0.0385283 0)
(0.185867 0.0381388 0)
(0.19847 -0.0403706 0)
(0.197242 -0.0451437 0)
(0.196403 -0.0490464 0)
(0.195922 -0.0522982 5.32692e-22)
(0.195678 -0.0549039 0)
(0.195649 -0.0568435 0)
(0.195832 -0.0580646 -3.32877e-20)
(0.19622 -0.0584867 3.38861e-20)
(0.19674 -0.0580572 2.63661e-22)
(0.197392 -0.0566438 0)
(0.198097 -0.0541313 0)
(0.198791 -0.0505118 1.68832e-20)
(0.199394 -0.0457903 -1.69364e-20)
(0.199826 -0.0400362 0)
(0.200018 -0.0333861 5.75375e-20)
(0.19992 -0.0260382 -5.75382e-20)
(0.199504 -0.0182376 0)
(0.198773 -0.0102545 -1.59192e-20)
(0.197756 -0.00236011 1.59952e-20)
(0.196506 0.00520019 0)
(0.195089 0.0122132 0)
(0.193582 0.0185145 -2.39378e-22)
(0.192062 0.0239937 2.95512e-20)
(0.190597 0.0285914 -2.97824e-20)
(0.189249 0.0322925 0)
(0.188066 0.0351163 0)
(0.187081 0.0371052 -4.42713e-22)
(0.186323 0.0383156 0)
(0.185838 0.0388154 0)
(0.185631 0.0386552 0)
(0.197775 -0.0427514 0)
(0.196843 -0.0470147 0)
(0.196171 -0.0505136 0)
(0.195772 -0.0534543 -3.20735e-20)
(0.195592 -0.0558073 3.24347e-20)
(0.195629 -0.0575282 -3.36342e-20)
(0.195877 -0.058552 3.39504e-20)
(0.196326 -0.0587955 -5.39099e-22)
(0.196904 -0.0582063 0)
(0.197605 -0.0566425 0)
(0.198346 -0.0540227 5.41726e-22)
(0.199064 -0.0503334 0)
(0.199678 -0.0455861 0)
(0.200108 -0.0398528 1.37307e-22)
(0.200286 -0.0332681 9.77412e-20)
(0.200163 -0.0260229 -9.77424e-20)
(0.199719 -0.0183501 -1.36593e-22)
(0.198956 -0.0105045 0)
(0.197908 -0.002741 0)
(0.196627 0.00470536 -5.33537e-22)
(0.195181 0.0116356 0)
(0.193645 0.0178943 0)
(0.192092 0.0233744 5.00298e-22)
(0.190589 0.0280159 3.18612e-20)
(0.189194 0.0318 -3.15644e-20)
(0.187953 0.0347412 3.18909e-20)
(0.186899 0.0368768 -3.15281e-20)
(0.186056 0.0382592 0)
(0.185458 0.0389593 0)
(0.185148 0.0390553 0)
(0.197149 -0.0448607 0)
(0.196417 -0.0487036 6.60489e-20)
(0.19584 -0.0518815 -3.36239e-20)
(0.195504 -0.0545538 -6.84071e-20)
(0.195392 -0.0566707 6.90326e-20)
(0.195498 -0.0581781 -3.43144e-20)
(0.195818 -0.0590073 0)
(0.196334 -0.0590759 -1.07817e-21)
(0.196981 -0.0583248 0)
(0.197744 -0.0566156 0)
(0.198538 -0.0538923 -1.92146e-20)
(0.199297 -0.0501363 1.81693e-20)
(0.199936 -0.0453656 0)
(0.200373 -0.0396549 -1.44155e-22)
(0.20054 -0.0331368 1.3941e-19)
(0.200391 -0.025995 -1.39259e-19)
(0.199904 -0.0184514 1.4329e-22)
(0.199088 -0.0107466 0)
(0.197979 -0.0031202 1.82491e-20)
(0.196633 0.00420741 -1.70328e-20)
(0.195121 0.0110487 -5.67382e-22)
(0.193518 0.0172567 0)
(0.191898 0.0227287 1.10656e-21)
(0.190328 0.0274052 0)
(0.188864 0.0312649 -3.37448e-20)
(0.187551 0.0343174 6.55163e-20)
(0.18642 0.0365944 -6.43192e-20)
(0.185492 0.0381417 -3.16473e-20)
(0.184801 0.0390288 6.29649e-20)
(0.18442 0.0393738 0)
(0.196483 -0.0468418 0)
(0.195871 -0.0503252 -6.87828e-20)
(0.195371 -0.0532117 6.7662e-20)
(0.195106 -0.0556274 0)
(0.195065 -0.0575152 0)
(0.195246 -0.0588153 -1.07763e-21)
(0.19564 -0.0594553 0)
(0.196226 -0.0593539 1.13072e-21)
(0.196951 -0.0584397 -1.82215e-20)
(0.197778 -0.0565924 1.83367e-20)
(0.198631 -0.0537647 1.9348e-20)
(0.199435 -0.04994 -1.88514e-20)
(0.200101 -0.0451419 -5.96916e-22)
(0.200545 -0.0394475 3.01971e-22)
(0.200699 -0.0329882 1.82611e-19)
(0.200516 -0.025942 -1.82402e-19)
(0.199978 -0.0185202 -3.08134e-22)
(0.199098 -0.0109514 6.1757e-22)
(0.197913 -0.00346075 -1.95375e-20)
(0.196485 0.00374514 1.88424e-20)
(0.194887 0.0104904 1.98143e-20)
(0.193196 0.0166372 -1.90826e-20)
(0.191489 0.0220883 -1.15967e-21)
(0.189832 0.026786 0)
(0.188283 0.0307077 1.15038e-21)
(0.186885 0.0338594 0)
(0.18567 0.036268 0)
(0.184655 0.0379726 6.81542e-20)
(0.183872 0.0390371 -6.51017e-20)
(0.183436 0.0396208 0)
(0.195712 -0.0487045 -6.52821e-20)
(0.195176 -0.0518557 1.02975e-19)
(0.194751 -0.0544732 -3.41716e-20)
(0.19456 -0.0566515 0)
(0.194594 -0.0583272 -3.51449e-20)
(0.194851 -0.059434 3.44935e-20)
(0.195323 -0.0598955 -3.51272e-20)
(0.195979 -0.059633 3.65739e-20)
(0.196781 -0.0585606 0)
(0.197673 -0.0565809 1.18213e-21)
(0.198582 -0.0536496 -1.94866e-20)
(0.199426 -0.0497534 9.67979e-21)
(0.200114 -0.0449211 1.13665e-21)
(0.200559 -0.0392329 9.76803e-21)
(0.200694 -0.0328195 2.27595e-19)
(0.200472 -0.0258543 -2.27599e-19)
(0.199878 -0.0185409 1.07659e-20)
(0.198926 -0.0110962 -1.26139e-21)
(0.197658 -0.00373321 1.04636e-20)
(0.196139 0.00335378 -2.0777e-20)
(0.194445 0.0100002 -1.30373e-21)
(0.192657 0.0160774 0)
(0.190851 0.0214944 4.01965e-20)
(0.189098 0.0261965 -4.10616e-20)
(0.187455 0.0301612 4.01023e-20)
(0.185965 0.0333926 -3.83822e-20)
(0.18466 0.0359138 -2.36911e-21)
(0.183554 0.0377585 -3.64138e-20)
(0.182678 0.0389849 1.04289e-19)
(0.182192 0.0397933 -7.28624e-20)
(0.194797 -0.0504435 3.18385e-20)
(0.194314 -0.0532886 -3.59697e-20)
(0.193963 -0.0556637 -3.66532e-20)
(0.193847 -0.0576272 3.71883e-20)
(0.193956 -0.0591083 -3.57708e-20)
(0.194289 -0.0600356 3.85169e-20)
(0.194838 -0.0603291 1.11584e-21)
(0.195565 -0.0599109 0)
(0.196439 -0.0586866 -1.94082e-20)
(0.19739 -0.0565784 -1.50929e-21)
(0.198348 -0.0535428 -1.54733e-21)
(0.199223 -0.0495713 2.10106e-20)
(0.199923 -0.0446978 9.88817e-21)
(0.200361 -0.0390055 -1.5935e-20)
(0.200469 -0.0326251 2.79333e-19)
(0.200201 -0.0257267 -2.68461e-19)
(0.199544 -0.0185073 -1.65962e-20)
(0.198517 -0.0111743 1.24581e-20)
(0.197163 -0.00393002 2.23025e-20)
(0.195551 0.00304256 1.44687e-21)
(0.193759 0.00958937 1.359e-21)
(0.19187 0.0155905 -2.18992e-20)
(0.189964 0.0209617 0)
(0.188111 0.0256521 -1.37766e-21)
(0.186369 0.0296407 3.90482e-20)
(0.184784 0.0329309 -4.11156e-20)
(0.183385 0.0355432 3.98418e-20)
(0.182187 0.0375072 -3.68557e-20)
(0.181219 0.038876 -3.51985e-20)
(0.180683 0.0398903 3.99513e-20)
(0.193707 -0.052066 0)
(0.193265 -0.0546346 -3.21434e-20)
(0.192986 -0.0567941 3.92354e-20)
(0.192943 -0.0585631 -3.7906e-20)
(0.193126 -0.0598646 3.61572e-20)
(0.193534 -0.0606229 -3.4949e-20)
(0.194155 -0.060756 3.52582e-20)
(0.194952 -0.0601838 2.39945e-21)
(0.195888 -0.0588138 1.23273e-21)
(0.196891 -0.0565773 1.26595e-21)
(0.197886 -0.0534353 1.31127e-21)
(0.19878 -0.0493838 -6.70677e-22)
(0.19948 -0.0444619 1.17422e-20)
(0.1999 -0.0387561 -5.44402e-21)
(0.199971 -0.0323974 3.16618e-19)
(0.19965 -0.0255537 -3.2811e-19)
(0.198927 -0.018416 -5.96811e-21)
(0.197822 -0.0111841 1.0281e-20)
(0.196382 -0.00405039 -7.48149e-22)
(0.194677 0.00281217 -2.96692e-21)
(0.192789 0.00925921 -1.4918e-21)
(0.190802 0.0151794 -1.48034e-21)
(0.188796 0.0204949 -2.92689e-21)
(0.186844 0.0251595 4.82635e-20)
(0.185005 0.0291544 -4.77392e-20)
(0.183325 0.0324834 4.36696e-20)
(0.181834 0.0351654 -4.04106e-20)
(0.180544 0.037227 3.63533e-20)
(0.179486 0.0387174 -4.34441e-20)
(0.178899 0.0399152 0)
(0.192413 -0.0535846 0)
(0.192005 -0.0559057 -2.12773e-21)
(0.191796 -0.0578733 3.09538e-20)
(0.191824 -0.0594647 2.60549e-22)
(0.19208 -0.060598 -3.67224e-20)
(0.192558 -0.061195 -2.39039e-21)
(0.193246 -0.0611724 -2.39808e-21)
(0.194107 -0.060447 1.75909e-20)
(0.195094 -0.0589329 -2.16045e-20)
(0.196137 -0.056567 -1.43522e-23)
(0.197155 -0.0533152 1.09801e-20)
(0.198055 -0.0491787 -1.10461e-20)
(0.198742 -0.0442018 5.08444e-21)
(0.199132 -0.0384742 -5.81963e-21)
(0.199156 -0.032128 3.72438e-19)
(0.198775 -0.0253289 -3.72443e-19)
(0.197981 -0.0182633 -6.26368e-21)
(0.196796 -0.0111237 7.02518e-21)
(0.195271 -0.00409394 -1.19096e-20)
(0.193477 0.00266224 1.57848e-20)
(0.191497 0.00900952 -3.15546e-23)
(0.189416 0.0148445 -2.50737e-20)
(0.187316 0.020096 2.78511e-20)
(0.185271 0.0247224 3.08685e-21)
(0.183339 0.0287077 2.96036e-21)
(0.181567 0.0320568 -4.67371e-20)
(0.179986 0.034788 3.86797e-22)
(0.178608 0.0369257 5.05464e-20)
(0.177462 0.0385164 0)
(0.176826 0.0398736 0)
(0.190886 -0.0550122 0)
(0.190507 -0.0571117 3.71563e-20)
(0.190366 -0.0589064 2.74124e-22)
(0.190463 -0.0603332 3.53853e-22)
(0.190786 -0.0613068 -7.27269e-20)
(0.191331 -0.0617471 3.83e-20)
(0.192079 -0.0615701 2.5072e-21)
(0.192993 -0.0606916 0)
(0.19402 -0.0590324 -2.00917e-20)
(0.195089 -0.0565344 2.02314e-20)
(0.196117 -0.0531687 -1.14424e-20)
(0.197008 -0.0489422 -3.0259e-22)
(0.197668 -0.0439045 1.18743e-20)
(0.198015 -0.0381486 -3.87575e-22)
(0.197983 -0.0318076 4.24523e-19)
(0.197535 -0.0250456 -4.24733e-19)
(0.196665 -0.0180447 4.15077e-22)
(0.1954 -0.010991 1.34509e-20)
(0.193792 -0.00406043 1.45094e-22)
(0.191912 0.00259195 -1.68247e-20)
(0.189845 0.0088391 2.86648e-20)
(0.187678 0.0145852 -2.67826e-20)
(0.185491 0.0197653 0)
(0.183358 0.0243424 -3.22628e-21)
(0.18134 0.0283038 5.10932e-20)
(0.179483 0.0316559 -1.03534e-19)
(0.177817 0.0344168 4.00137e-22)
(0.176356 0.0366099 -2.40018e-21)
(0.175128 0.0382797 4.66462e-20)
(0.174444 0.0397717 0)
(0.189093 -0.0563598 4.34533e-21)
(0.188744 -0.058259 0)
(0.188667 -0.0598952 2.28157e-21)
(0.188829 -0.0611668 -3.49555e-20)
(0.189215 -0.0619855 3.77847e-20)
(0.189819 -0.0622706 -3.97226e-20)
(0.190618 -0.061938 4.02805e-20)
(0.191574 -0.0609051 2.13276e-20)
(0.192629 -0.0590979 -4.64363e-20)
(0.193711 -0.056464 -2.04099e-21)
(0.194733 -0.05298 2.17115e-20)
(0.195601 -0.0486592 -1.2367e-20)
(0.196221 -0.0435559 6.03286e-21)
(0.196513 -0.0377669 1.01238e-20)
(0.196415 -0.0314262 4.75483e-19)
(0.195894 -0.0246965 -4.82056e-19)
(0.194946 -0.0177558 1.00911e-20)
(0.1936 -0.010784 7.27001e-21)
(0.19191 -0.00394968 -1.42373e-20)
(0.189949 0.00260001 3.25077e-20)
(0.187802 0.00874591 1.97869e-21)
(0.185554 0.0143993 -5.35925e-20)
(0.183288 0.0195011 2.82995e-20)
(0.181077 0.0240192 5.56945e-20)
(0.17898 0.0279437 -5.49232e-20)
(0.177044 0.031283 5.337e-20)
(0.1753 0.0340558 -5.59049e-20)
(0.173761 0.0362843 3.23461e-21)
(0.172456 0.0380128 0)
(0.171727 0.0396152 -6.03024e-21)
(0.187003 -0.0576349 -4.51918e-21)
(0.186681 -0.0593502 3.76168e-20)
(0.186665 -0.0608376 -3.61347e-20)
(0.186888 -0.0619593 -2.37151e-21)
(0.187333 -0.0626249 -2.44986e-21)
(0.187988 -0.0627535 0)
(0.188829 -0.0622624 2.57807e-21)
(0.189815 -0.0610715 2.46541e-20)
(0.190886 -0.0591123 -4.37118e-20)
(0.191966 -0.0563382 2.46114e-20)
(0.192968 -0.0527321 1.53321e-21)
(0.193798 -0.0483133 -1.2945e-20)
(0.194366 -0.0431414 1.30146e-20)
(0.194592 -0.0373165 4.29295e-22)
(0.19442 -0.0309737 5.34632e-19)
(0.193819 -0.024274 -5.34412e-19)
(0.19279 -0.0173915 -4.66978e-22)
(0.191363 -0.0105001 1.5217e-20)
(0.189594 -0.00376147 -1.51359e-20)
(0.187557 0.00268502 -1.90092e-21)
(0.185336 0.00872753 2.88718e-20)
(0.183016 0.014284 -6.29106e-20)
(0.180679 0.0193011 2.63824e-20)
(0.178397 0.0237509 -3.77171e-21)
(0.176229 0.0276268 0)
(0.174222 0.0309392 3.53886e-21)
(0.172407 0.0337072 3.45421e-21)
(0.170796 0.0359527 -5.40139e-20)
(0.169421 0.0377203 4.97342e-20)
(0.168648 0.0394095 6.27139e-21)
(0.18458 -0.0588411 0)
(0.184283 -0.0603834 -7.44501e-23)
(0.184325 -0.0617274 -3.67881e-20)
(0.184606 -0.0627008 3.7501e-20)
(0.185101 -0.0632118 3.97331e-20)
(0.1858 -0.0631804 -6.36424e-20)
(0.186674 -0.062526 1.83442e-20)
(0.187679 -0.0611722 -4.13797e-23)
(0.188752 -0.0590563 2.89375e-21)
(0.189817 -0.0561379 0)
(0.190785 -0.0524063 1.29739e-20)
(0.191565 -0.0478873 -2.66224e-20)
(0.192068 -0.0426456 1.3628e-20)
(0.19222 -0.0367844 -4.49211e-22)
(0.191967 -0.0304396 5.92683e-19)
(0.191282 -0.0237703 -5.92931e-19)
(0.19017 -0.0169468 4.88642e-22)
(0.188663 -0.010137 1.61757e-20)
(0.186818 -0.00349543 -3.24313e-20)
(0.184709 0.00284562 1.6225e-20)
(0.18242 0.00878143 0)
(0.180036 0.0142363 -4.11706e-21)
(0.177636 0.019162 -9.1377e-23)
(0.175291 0.0235349 3.57184e-20)
(0.17306 0.0273514 -8.97053e-20)
(0.17099 0.0306238 6.13249e-20)
(0.169111 0.0333719 5.95064e-20)
(0.167434 0.0356174 -6.19639e-20)
(0.165994 0.0374058 -9.2968e-23)
(0.165181 0.039159 0)
(0.181783 -0.0599765 0)
(0.181512 -0.0613517 3.34638e-20)
(0.181609 -0.0625534 -3.64909e-20)
(0.181942 -0.0633767 -3.62495e-20)
(0.182483 -0.063729 3.93383e-20)
(0.183218 -0.0635321 2.37485e-20)
(0.184115 -0.0627084 6.92013e-22)
(0.185128 -0.0611863 -2.53711e-20)
(0.186191 -0.0589088 -6.00593e-21)
(0.187228 -0.0558424 0)
(0.18815 -0.0519833 0)
(0.188868 -0.0473635 1.24441e-20)
(0.189297 -0.0420528 -1.51796e-20)
(0.189366 -0.0361572 0)
(0.189026 -0.0298132 6.52694e-19)
(0.188254 -0.0231777 -6.52704e-19)
(0.187058 -0.0164165 0)
(0.185473 -0.0096918 -1.61148e-20)
(0.183555 -0.0031511 1.92603e-20)
(0.181381 0.00308052 0)
(0.179031 0.00890505 0)
(0.176589 0.0142527 8.68483e-21)
(0.174133 0.0190804 -3.01833e-20)
(0.171734 0.0233681 6.0123e-24)
(0.169448 0.0271152 2.92546e-20)
(0.167322 0.0303356 6.50902e-20)
(0.165385 0.0330498 -6.79006e-20)
(0.163648 0.0352796 -6.15295e-20)
(0.162149 0.0370718 6.3923e-20)
(0.161296 0.0388674 0)
(0.17857 -0.0610334 0)
(0.178324 -0.0622428 0)
(0.178474 -0.0632996 0)
(0.178855 -0.0639682 3.6492e-20)
(0.179437 -0.0641556 -1.67935e-20)
(0.1802 -0.0637862 -2.3438e-20)
(0.181112 -0.0627865 -2.7558e-21)
(0.182122 -0.0610901 -2.39501e-20)
(0.183165 -0.0586466 -9.85886e-22)
(0.184162 -0.0554296 2.56196e-20)
(0.185027 -0.0514424 1.72246e-21)
(0.185674 -0.0467234 3.63201e-21)
(0.18602 -0.0413469 9.68795e-21)
(0.185999 -0.0354217 -7.31488e-21)
(0.185568 -0.029084 7.14321e-19)
(0.184707 -0.0224883 -7.14322e-19)
(0.183428 -0.0157957 -9.50417e-21)
(0.181767 -0.00916206 6.65239e-21)
(0.179783 -0.00272805 -4.58504e-21)
(0.177548 0.00338836 -2.33582e-21)
(0.175144 0.00909571 3.72733e-20)
(0.172652 0.0143299 3.77167e-22)
(0.170149 0.0190524 -3.6575e-20)
(0.167702 0.0232468 4.58181e-21)
(0.165369 0.026915 -3.09903e-20)
(0.163194 0.0300724 -3.89821e-20)
(0.161204 0.03274 7.22204e-20)
(0.159413 0.0349398 0)
(0.157859 0.0367201 0)
(0.156966 0.0385374 0)
(0.174895 -0.0619976 3.60214e-20)
(0.174673 -0.0630387 -3.78578e-20)
(0.174874 -0.0639449 0)
(0.175302 -0.0644519 1.95777e-20)
(0.175919 -0.0644665 -2.25668e-20)
(0.176705 -0.0639166 -2.18021e-20)
(0.177623 -0.0627337 2.79407e-20)
(0.178622 -0.0608575 0)
(0.179634 -0.0582447 3.20625e-21)
(0.180581 -0.054876 0)
(0.18138 -0.0507623 -3.8743e-24)
(0.181946 -0.0459479 2.63505e-24)
(0.182203 -0.0405117 -1.99735e-21)
(0.182089 -0.0345643 -1.04764e-21)
(0.181564 -0.0282414 7.78468e-19)
(0.180615 -0.0216945 -7.7849e-19)
(0.179254 -0.0150794 1.16893e-21)
(0.177522 -0.00854543 2.3936e-21)
(0.175475 -0.00222616 -4.48116e-23)
(0.173188 0.00376747 -4.92208e-23)
(0.170737 0.00935039 0)
(0.168204 0.0144639 -4.86767e-21)
(0.165661 0.0190738 0)
(0.163175 0.0231668 2.8908e-20)
(0.160801 0.026747 -3.77276e-20)
(0.158583 0.0298312 -3.24057e-20)
(0.156546 0.0324407 3.62041e-20)
(0.154704 0.0345975 0)
(0.153099 0.0363518 -6.17556e-20)
(0.152165 0.0381712 6.6513e-20)
(0.170704 -0.0628484 0)
(0.170509 -0.0637152 8.96204e-23)
(0.170761 -0.0644628 -3.92905e-20)
(0.171233 -0.0647992 3.79377e-20)
(0.171883 -0.0646321 -2.51445e-21)
(0.172685 -0.0638934 5.42151e-21)
(0.173604 -0.0625205 -2.91355e-21)
(0.174583 -0.0604599 0)
(0.175556 -0.0576758 0)
(0.176446 -0.0541565 0)
(0.17717 -0.0499203 -1.86382e-21)
(0.17765 -0.0450172 1.42325e-20)
(0.177812 -0.0395303 -2.38416e-20)
(0.177601 -0.0335714 1.36445e-20)
(0.176982 -0.0272751 8.39093e-19)
(0.175945 -0.020789 -8.48496e-19)
(0.174508 -0.0142632 1.42837e-20)
(0.17271 -0.00784008 -3.17839e-20)
(0.170609 -0.00164588 2.29474e-20)
(0.168276 0.00421553 2.58418e-21)
(0.165787 0.00966535 2.65201e-21)
(0.163221 0.0146501 0)
(0.160647 0.0191394 0)
(0.15813 0.0231229 5.0625e-21)
(0.155722 0.0266065 -1.00778e-20)
(0.153467 0.0296081 4.99926e-21)
(0.151388 0.0321489 7.67222e-20)
(0.149499 0.0342511 -7.0194e-20)
(0.147845 0.0359667 1.35797e-22)
(0.146868 0.0377698 0)
(0.16594 -0.0635575 3.54786e-20)
(0.165776 -0.0642418 -3.28691e-20)
(0.166081 -0.0648207 -1.60714e-20)
(0.166598 -0.0649762 1.88192e-20)
(0.167277 -0.0646181 2.35136e-20)
(0.168093 -0.0636823 -2.41652e-20)
(0.169005 -0.0621135 -2.40417e-20)
(0.169959 -0.0598655 2.13794e-20)
(0.170885 -0.0569102 -1.55275e-20)
(0.17171 -0.0532441 1.40574e-20)
(0.172354 -0.0488922 -1.78038e-20)
(0.172742 -0.0439107 7.58242e-21)
(0.172807 -0.0383855 7.42378e-21)
(0.172498 -0.0324295 -5.79528e-22)
(0.171786 -0.0261749 9.09902e-19)
(0.170666 -0.0197649 -9.0993e-19)
(0.169158 -0.0133433 6.58459e-22)
(0.167301 -0.00704504 1.22316e-20)
(0.165154 -0.000988654 1.13329e-20)
(0.162785 0.00472911 -2.19035e-20)
(0.160269 0.0100356 1.96599e-20)
(0.157678 0.0148823 -1.92706e-20)
(0.155083 0.0192425 4.98626e-20)
(0.152542 0.0231083 -4.34517e-20)
(0.150109 0.0264871 -3.75285e-20)
(0.147822 0.0293973 3.67154e-20)
(0.145706 0.03186 4.07765e-20)
(0.143775 0.0338975 -4.46734e-20)
(0.142074 0.035563 -7.90983e-20)
(0.141049 0.037333 7.50921e-20)
(0.160539 -0.0640886 2.16381e-21)
(0.160413 -0.0645799 3.41169e-20)
(0.160773 -0.0649788 -3.72538e-20)
(0.161335 -0.0649429 0)
(0.162044 -0.064384 2.50191e-21)
(0.162871 -0.0632439 0)
(0.163774 -0.0614749 2.92471e-21)
(0.164696 -0.0590386 -2.62763e-20)
(0.165571 -0.055915 2.85337e-20)
(0.166326 -0.0521089 -1.85255e-21)
(0.166884 -0.0476522 3.99602e-21)
(0.167177 -0.0426061 2.14299e-21)
(0.167142 -0.0370593 1.13716e-21)
(0.166736 -0.0311244 6.01533e-22)
(0.165935 -0.0249307 9.76595e-19)
(0.164738 -0.018616 -9.76612e-19)
(0.163166 -0.012317 -6.8346e-22)
(0.16126 -0.00616058 -1.40501e-21)
(0.159077 -0.000257421 2.92658e-21)
(0.156683 0.00530304 0)
(0.15415 0.0104543 2.98815e-21)
(0.151548 0.0151525 4.45105e-20)
(0.14894 0.0193743 -4.64299e-20)
(0.146386 0.0231139 -5.86793e-21)
(0.143934 0.0263798 0)
(0.141623 0.0291906 -5.64572e-21)
(0.139476 0.0315668 0)
(0.137505 0.0335305 -7.82631e-20)
(0.13576 0.0351363 8.13867e-20)
(0.134684 0.0368578 -4.9465e-21)
(0.154429 -0.0643947 3.16835e-20)
(0.154353 -0.064682 -3.32118e-20)
(0.154769 -0.0648876 1.17742e-22)
(0.155381 -0.064652 -2.13876e-20)
(0.156122 -0.0638829 3.78722e-20)
(0.156958 -0.0625327 -2.3999e-20)
(0.157848 -0.0605612 -3.01062e-21)
(0.158735 -0.0579385 5.79404e-23)
(0.159553 -0.0546532 0)
(0.160233 -0.0507179 1.91313e-21)
(0.160702 -0.0461715 1.29011e-20)
(0.160898 -0.0410795 -1.94392e-20)
(0.160764 -0.0355324 -1.19209e-21)
(0.160264 -0.0296417 4.55053e-21)
(0.159379 -0.0235327 1.03814e-18)
(0.158112 -0.0173368 -1.04904e-18)
(0.156486 -0.0111826 6.42138e-21)
(0.154542 -0.00518875 1.51196e-21)
(0.152336 0.000542644 -2.78132e-20)
(0.149931 0.00592954 2.45021e-20)
(0.147395 0.0109115 -3.08585e-21)
(0.144793 0.0154492 0)
(0.142186 0.0195224 -6.12025e-21)
(0.139629 0.0231269 6.04024e-21)
(0.137168 0.0262719 -4.20794e-20)
(0.13484 0.0289757 9.99338e-20)
(0.132667 0.0312579 -4.00555e-20)
(0.130661 0.0331404 1.93043e-22)
(0.128874 0.0346782 -8.34727e-20)
(0.127742 0.0363377 8.9526e-20)
(0.147527 -0.0644162 0)
(0.14751 -0.0644889 0)
(0.147994 -0.0644927 1.90606e-20)
(0.148661 -0.0640447 -1.524e-20)
(0.149434 -0.0630582 0)
(0.150279 -0.0614942 2.7591e-21)
(0.151154 -0.059321 2.93146e-21)
(0.152002 -0.0565176 3.29229e-21)
(0.15276 -0.0530815 0)
(0.153361 -0.0490333 0)
(0.153739 -0.0444177 2.12269e-21)
(0.153836 -0.0393042 -1.06295e-20)
(0.153606 -0.0337841 1.20377e-20)
(0.153017 -0.0279664 6.55268e-22)
(0.152055 -0.0219713 1.11e-18)
(0.150727 -0.0159228 -1.11039e-18)
(0.149059 -0.00994066 -7.56142e-22)
(0.147092 -0.00413424 9.65931e-21)
(0.144878 0.00140311 -1.26929e-20)
(0.142478 0.00659698 0)
(0.139954 0.011393 0)
(0.137368 0.0157563 0)
(0.134776 0.0196691 0)
(0.132229 0.0231288 -6.58795e-21)
(0.12977 0.0261446 -6.26684e-21)
(0.127435 0.0287341 0)
(0.125243 0.0309158 -5.45144e-20)
(0.123208 0.0327106 4.13814e-20)
(0.121382 0.0341738 0)
(0.120192 0.0357597 0)
(0.139736 -0.0640812 1.91927e-21)
(0.139794 -0.0639291 0)
(0.140356 -0.0637195 0)
(0.141083 -0.0630478 0)
(0.141892 -0.0618393 0)
(0.142746 -0.0600614 0)
(0.143604 -0.0576917 -2.99395e-21)
(0.144409 -0.0547187 -1.61305e-21)
(0.145102 -0.0511489 1.50055e-20)
(0.145621 -0.0470103 -7.73529e-22)
(0.145906 -0.0423533 -3.69554e-20)
(0.145906 -0.03725 2.92329e-20)
(0.145583 -0.0317913 6.74339e-22)
(0.14491 -0.0260826 -1.06221e-20)
(0.143881 -0.0202375 1.17489e-18)
(0.142506 -0.0143714 -1.17493e-18)
(0.140812 -0.00859429 -1.30635e-20)
(0.138838 -0.00300555 -5.3483e-22)
(0.136635 0.00231076 4.0883e-20)
(0.134258 0.0072881 -5.16126e-20)
(0.131765 0.0118782 2.923e-21)
(0.129212 0.0160502 2.7569e-20)
(0.126652 0.0197891 3.51958e-21)
(0.124131 0.0230928 6.72832e-21)
(0.121689 0.0259705 0)
(0.119359 0.0284384 0)
(0.117158 0.0305133 0)
(0.115101 0.0322151 0)
(0.113241 0.0335984 0)
(0.11199 0.0351011 -5.90361e-21)
(0.13094 -0.063293 -3.70788e-21)
(0.13109 -0.0629076 1.38486e-20)
(0.131744 -0.0624697 -1.43028e-20)
(0.132536 -0.061569 0)
(0.133382 -0.0601373 1.92544e-20)
(0.134245 -0.0581501 -2.23245e-20)
(0.135082 -0.0555952 2.56705e-20)
(0.135841 -0.0524709 -2.16181e-20)
(0.136465 -0.0487925 0)
(0.136898 -0.0445951 -1.47212e-20)
(0.137089 -0.0399337 8.17436e-22)
(0.136994 -0.0348816 2.87427e-20)
(0.136582 -0.0295281 -1.14817e-20)
(0.135835 -0.0239733 -5.85097e-21)
(0.134752 -0.018323 1.24231e-18)
(0.133345 -0.0126824 -1.22955e-18)
(0.131643 -0.00715091 -6.529e-21)
(0.129683 -0.00181691 -1.24092e-20)
(0.127512 0.00324526 4.2886e-20)
(0.125182 0.00797719 9.3769e-22)
(0.122743 0.0123367 -3.24503e-20)
(0.120247 0.016297 -3.72498e-21)
(0.11774 0.0198451 -6.58854e-20)
(0.115264 0.0229796 5.34996e-20)
(0.112856 0.0257087 -4.95089e-20)
(0.110545 0.0280469 5.51314e-20)
(0.108348 0.030009 0)
(0.10628 0.0316131 -5.20492e-20)
(0.104393 0.0329121 5.03931e-20)
(0.103083 0.0343241 1.22161e-20)
(0.120993 -0.061918 -9.59193e-21)
(0.121257 -0.0612916 1.26764e-20)
(0.122013 -0.0606163 1.23049e-20)
(0.122875 -0.0594849 -1.42839e-20)
(0.12376 -0.0578345 -2.02812e-20)
(0.124628 -0.05565 4.44883e-20)
(0.12544 -0.0529303 -3.60255e-20)
(0.126146 -0.0496834 1.05264e-20)
(0.126696 -0.045933 0)
(0.12704 -0.0417204 1.6868e-20)
(0.127136 -0.0371039 -1.49351e-20)
(0.126949 -0.0321568 1.23976e-21)
(0.126456 -0.0269646 5.6033e-21)
(0.125647 -0.0216207 -8.66778e-21)
(0.124525 -0.0162212 1.29519e-18)
(0.123106 -0.0108601 -1.28877e-18)
(0.121418 -0.00562455 -1.05164e-20)
(0.119498 -0.000591373 7.06865e-21)
(0.117386 0.00417542 -1.8893e-21)
(0.115129 0.0086258 -3.83077e-20)
(0.112773 0.0127238 3.40714e-20)
(0.11036 0.0164464 7.68019e-21)
(0.107933 0.0197824 3.44887e-20)
(0.105527 0.0227307 -8.30683e-20)
(0.103176 0.025298 1.03693e-19)
(0.100905 0.0274967 -5.03797e-20)
(0.0987301 0.0293389 -5.66856e-20)
(0.0966647 0.0308404 5.48714e-20)
(0.0947627 0.0320516 5.15035e-20)
(0.0933975 0.0333666 -6.53455e-20)
(0.109713 -0.0597659 -1.25975e-20)
(0.110111 -0.0588948 -9.06612e-22)
(0.110973 -0.0579814 3.78317e-22)
(0.111906 -0.056624 1.24906e-20)
(0.112826 -0.0547689 2.06167e-21)
(0.113693 -0.0524114 -3.48942e-21)
(0.114471 -0.0495612 7.38944e-23)
(0.115117 -0.0462358 0)
(0.115585 -0.0424666 0)
(0.115837 -0.0382997 1.68586e-20)
(0.115837 -0.033795 -1.94362e-20)
(0.115563 -0.0290238 -1.2486e-21)
(0.114999 -0.0240662 0)
(0.114143 -0.0190064 -2.34641e-21)
(0.113003 -0.0139293 1.34533e-18)
(0.111597 -0.00891585 -1.33873e-18)
(0.109953 -0.00404001 -4.42586e-21)
(0.108103 0.000633939 0)
(0.106084 0.00505288 1.90276e-21)
(0.103936 0.00917542 -2.8145e-20)
(0.101696 0.0129717 2.75018e-20)
(0.0994022 0.0164226 -3.92638e-21)
(0.0970878 0.0195183 0)
(0.0947844 0.0222574 1.77204e-22)
(0.0925198 0.024645 1.1566e-20)
(0.0903165 0.0266907 -7.4232e-21)
(0.0881877 0.0284034 5.93421e-20)
(0.0861471 0.0297961 -1.61098e-22)
(0.0842477 0.0309155 5.77201e-21)
(0.082838 0.0321275 -4.85013e-20)
(0.0968486 -0.056552 8.60828e-21)
(0.0973948 -0.0554428 -7.2809e-21)
(0.0983618 -0.0543001 0)
(0.0993594 -0.0527361 1.16817e-20)
(0.100302 -0.050708 -1.35182e-20)
(0.101154 -0.0482221 1.01388e-20)
(0.101884 -0.0452982 -1.87655e-20)
(0.102456 -0.0419627 9.60258e-21)
(0.102834 -0.038253 0)
(0.102989 -0.0342181 0)
(0.102896 -0.0299175 -1.0553e-20)
(0.102543 -0.0254183 1.0853e-20)
(0.101923 -0.0207924 0)
(0.101041 -0.016113 -7.55382e-22)
(0.0999105 -0.0114514 1.38275e-18)
(0.0985503 -0.00687417 -1.38279e-18)
(0.0969863 -0.0024406 9.14468e-22)
(0.0952475 0.00179835 0)
(0.0933645 0.00580094 1.42525e-20)
(0.0913686 0.00953465 -1.39392e-20)
(0.0892904 0.0129758 0)
(0.087159 0.0161088 0)
(0.0850014 0.018925 3.76767e-20)
(0.0828426 0.0214224 -6.95326e-20)
(0.0807052 0.023604 2.81069e-20)
(0.0786078 0.0254762 -5.94895e-20)
(0.0765613 0.0270444 6.54635e-20)
(0.0745779 0.0283179 0)
(0.072709 0.0293388 -6.3424e-20)
(0.071275 0.0304409 5.03899e-20)
(0.0820453 -0.0518189 5.27391e-21)
(0.0827396 -0.0504997 -5.18083e-21)
(0.0837938 -0.0491603 7.21132e-21)
(0.0848316 -0.0474378 2.96238e-21)
(0.0857716 -0.0453014 3.41821e-21)
(0.0865833 -0.0427676 -2.2124e-20)
(0.0872431 -0.0398651 8.3063e-21)
(0.0877237 -0.036627 1.40934e-21)
(0.0880004 -0.0330948 -1.4037e-20)
(0.0880544 -0.0293181 3.06924e-20)
(0.0878742 -0.0253529 -1.66598e-20)
(0.0874561 -0.0212592 -1.17724e-20)
(0.0868038 -0.017098 1.65182e-20)
(0.0859282 -0.0129288 -9.11026e-21)
(0.0848453 -0.0088075 1.41607e-18)
(0.0835756 -0.00478427 -1.40899e-18)
(0.0821416 -0.000902903 -1.1491e-20)
(0.0805671 0.00279977 2.40053e-20)
(0.0788757 0.00629376 -1.40435e-20)
(0.0770903 0.00955556 -3.41289e-20)
(0.0752326 0.0125675 6.81576e-20)
(0.0733233 0.0153173 -3.38072e-20)
(0.0713815 0.0177973 -4.17507e-21)
(0.0694255 0.0200043 3.42566e-20)