/*--------------------------------*- C++ -*----------------------------------*\
  =========                 |
  \\      /  F ield         | OpenFOAM: The Open Source CFD Toolbox
   \\    /   O peration     | Website:  https://openfoam.org
    \\  /    A nd           | Version:  12
     \\/     M anipulation  |
\*---------------------------------------------------------------------------*/
FoamFile
{
    format      ascii;
    class       volVectorField;
    location    "40";
    object      UMean;
}
// * * * * * * * * * * * * * * * * * * * * * * * * * * * * * * * * * * * * * //

dimensions      [0 1 -1 0 0 0 0];

internalField   nonuniform List<vector> 
6750
(
(0.200107 -0.00270103 0)
(0.200539 -0.00764347 0)
(0.200969 -0.0117625 0)
(0.201334 -0.0152951 0)
(0.201452 -0.0184399 0)
(0.200034 -0.00323787 0)
(0.200354 -0.00856386 0)
(0.20068 -0.012749 0)
(0.200926 -0.016155 0)
(0.201038 -0.0189909 0)
(0.200024 -0.00343577 0)
(0.200181 -0.00892511 0)
(0.200321 -0.0131069 0)
(0.200383 -0.0163996 0)
(0.200371 -0.0190372 0)
(0.200007 -0.00349584 0)
(0.200011 -0.00900655 0)
(0.199965 -0.0131345 0)
(0.19985 -0.0163244 0)
(0.199703 -0.0188342 0)
(0.199992 -0.00345609 0)
(0.199856 -0.00886076 0)
(0.19963 -0.0128737 0)
(0.19934 -0.0159503 0)
(0.199044 -0.0183594 0)
(0.199979 -0.00333116 0)
(0.199713 -0.00851613 0)
(0.199311 -0.0123511 0)
(0.198841 -0.0152859 0)
(0.198381 -0.0175863 0)
(0.199968 -0.00313382 0)
(0.199576 -0.00799736 0)
(0.199001 -0.0115908 0)
(0.198348 -0.0143444 0)
(0.197712 -0.016511 0)
(0.199957 -0.00287465 0)
(0.199446 -0.00732668 0)
(0.198702 -0.0106175 0)
(0.197865 -0.0131462 0)
(0.197048 -0.0151456 0)
(0.199947 -0.00256339 0)
(0.199323 -0.00652688 0)
(0.198419 -0.00945977 0)
(0.197407 -0.0117212 0)
(0.196413 -0.0135184 0)
(0.199939 -0.00221025 0)
(0.199213 -0.00562315 0)
(0.198163 -0.00815217 0)
(0.196989 -0.0101088 0)
(0.195829 -0.0116712 0)
(0.199931 -0.00182617 0)
(0.199118 -0.00464291 0)
(0.197942 -0.00673342 0)
(0.196628 -0.00835564 0)
(0.195323 -0.00965636 0)
(0.199926 -0.00142238 0)
(0.199042 -0.00361439 0)
(0.197763 -0.00524415 0)
(0.196335 -0.00651176 0)
(0.194911 -0.00753137 0)
(0.199922 -0.00100977 0)
(0.198986 -0.00256504 0)
(0.197631 -0.00372415 0)
(0.196119 -0.00462664 0)
(0.194605 -0.00535404 0)
(0.199918 -0.00059806 0)
(0.198953 -0.00151999 0)
(0.197547 -0.00220957 0)
(0.19598 -0.00274557 0)
(0.194407 -0.00317801 0)
(0.199909 -0.000198776 0)
(0.198946 -0.000499463 0)
(0.197509 -0.000729506 0)
(0.195915 -0.000906641 0)
(0.194314 -0.0010494 0)
(0.199909 0.000197309 0)
(0.198946 0.000496394 0)
(0.197509 0.000725507 0)
(0.195915 0.000902117 0)
(0.194314 0.00104455 0)
(0.199918 0.00059659 0)
(0.198953 0.00151691 0)
(0.197547 0.00220558 0)
(0.19598 0.00274106 0)
(0.194407 0.00317317 0)
(0.199922 0.00100831 0)
(0.198986 0.00256197 0)
(0.197631 0.00372018 0)
(0.196119 0.00462215 0)
(0.194605 0.00534923 0)
(0.199926 0.00142093 0)
(0.199042 0.00361135 0)
(0.197763 0.00524021 0)
(0.196335 0.00650732 0)
(0.194911 0.00752661 0)
(0.199931 0.00182474 0)
(0.199118 0.0046399 0)
(0.197942 0.00672952 0)
(0.196628 0.00835126 0)
(0.195323 0.00965167 0)
(0.199939 0.00220885 0)
(0.199213 0.00562018 0)
(0.198163 0.00814833 0)
(0.196989 0.0101045 0)
(0.195829 0.0116666 0)
(0.199947 0.00256202 0)
(0.199323 0.00652396 0)
(0.198419 0.00945599 0)
(0.197407 0.0117169 0)
(0.196412 0.0135139 0)
(0.199957 0.00287333 0)
(0.199446 0.00732383 0)
(0.198702 0.0106138 0)
(0.197865 0.0131421 0)
(0.197048 0.0151413 0)
(0.199968 0.00313257 0)
(0.199576 0.00799461 0)
(0.199001 0.0115872 0)
(0.198348 0.0143404 0)
(0.197711 0.0165066 0)
(0.199979 0.00332998 0)
(0.199713 0.00851348 0)
(0.199311 0.0123476 0)
(0.198841 0.0152819 0)
(0.19838 0.017582 0)
(0.199992 0.00345499 0)
(0.199856 0.00885822 0)
(0.199629 0.0128702 0)
(0.19934 0.0159463 0)
(0.199044 0.018355 0)
(0.200007 0.00349482 0)
(0.200011 0.00900413 0)
(0.199964 0.0131311 0)
(0.19985 0.0163204 0)
(0.199703 0.0188297 0)
(0.200024 0.00343484 0)
(0.200181 0.00892279 0)
(0.200321 0.0131036 0)
(0.200383 0.0163955 0)
(0.200371 0.0190325 0)
(0.200034 0.00323703 0)
(0.200354 0.00856166 0)
(0.200679 0.0127458 0)
(0.200925 0.0161509 0)
(0.201037 0.018986 0)
(0.200107 0.00270033 0)
(0.200538 0.00764148 0)
(0.200969 0.0117594 0)
(0.201334 0.0152911 0)
(0.201452 0.018435 0)
(0.200899 -0.0249854 0)
(0.200409 -0.0276954 0)
(0.20013 -0.0300272 0)
(0.200156 -0.0319939 -5.86104e-22)
(0.200382 -0.0335561 0)
(0.200764 -0.0346948 0)
(0.201292 -0.0353768 3.90786e-20)
(0.201959 -0.0355403 -3.93661e-20)
(0.20273 -0.0351116 -3.03014e-22)
(0.203584 -0.0339965 -1.9664e-20)
(0.204469 -0.032106 1.67476e-22)
(0.205322 -0.0293982 2.0762e-22)
(0.206073 -0.0258689 9.91562e-21)
(0.206648 -0.0215742 9.69158e-21)
(0.20698 -0.0166355 2.24209e-20)
(0.207022 -0.0112342 -2.24287e-20)
(0.206753 -0.0055952 9.03895e-21)
(0.206182 3.6743e-05 8.51168e-21)
(0.205345 0.00542556 -3.66474e-22)
(0.204304 0.0103698 -3.564e-22)
(0.203134 0.01471 -1.67152e-20)
(0.201912 0.0183463 2.53963e-22)
(0.200711 0.0212356 -3.10522e-20)
(0.199593 0.0233828 3.07775e-20)
(0.198607 0.0248295 0)
(0.197785 0.0256403 0)
(0.197146 0.0258907 4.48334e-22)
(0.196713 0.0256651 0)
(0.196521 0.0250726 0)
(0.196497 0.0241927 0)
(0.200604 -0.0269449 0)
(0.200227 -0.029561 0)
(0.200113 -0.0316433 0)
(0.200242 -0.0333418 5.53697e-22)
(0.200532 -0.0346605 0)
(0.200968 -0.0355848 0)
(0.201551 -0.0360718 -3.5492e-20)
(0.20227 -0.0360537 3.62817e-20)
(0.203091 -0.0354576 2.85198e-22)
(0.203989 -0.0341884 0)
(0.204908 -0.0321741 0)
(0.205786 -0.0293795 1.80642e-20)
(0.206553 -0.0258085 -1.81211e-20)
(0.207136 -0.0215202 0)
(0.207473 -0.0166322 6.09495e-20)
(0.207518 -0.0113143 -6.09421e-20)
(0.207252 -0.00577425 0)
(0.206685 -0.000236578 -1.65371e-20)
(0.205851 0.00508142 1.6613e-20)
(0.204809 0.0099911 0)
(0.203628 0.0143429 0)
(0.202384 0.0180382 -2.38085e-22)
(0.201147 0.021029 2.93658e-20)
(0.199979 0.023312 -2.96032e-20)
(0.198927 0.0249186 0)
(0.198025 0.0259038 0)
(0.197293 0.0263338 -4.21983e-22)
(0.196744 0.0262783 0)
(0.196416 0.0258172 0)
(0.1963 0.0249851 0)
(0.200297 -0.0285015 0)
(0.200095 -0.0308224 0)
(0.200085 -0.0326866 0)
(0.200275 -0.0342278 -3.34832e-20)
(0.200622 -0.0354232 3.38562e-20)
(0.201127 -0.0362402 -3.53635e-20)
(0.201788 -0.036626 3.56961e-20)
(0.202592 -0.0365089 -5.74426e-22)
(0.203507 -0.0358143 0)
(0.204498 -0.0344506 0)
(0.205508 -0.0323536 5.70036e-22)
(0.206469 -0.0294912 0)
(0.207306 -0.025872 0)
(0.207942 -0.0215576 1.44401e-22)
(0.208311 -0.016665 1.02869e-19)
(0.208369 -0.0113599 -1.0287e-19)
(0.208095 -0.00584307 -1.42902e-22)
(0.207499 -0.000330111 0)
(0.20662 0.00497011 0)
(0.205517 0.00987453 -5.51859e-22)
(0.204263 0.0142411 0)
(0.202935 0.0179731 0)
(0.201605 0.0210219 5.0323e-22)
(0.200336 0.0233808 3.19424e-20)
(0.199179 0.0250769 -3.16448e-20)
(0.198169 0.0261608 3.15566e-20)
(0.197327 0.0266959 -3.11862e-20)
(0.196664 0.0267505 0)
(0.196207 0.0264061 0)
(0.195968 0.0257062 0)
(0.200009 -0.0298881 0)
(0.199927 -0.0319728 6.77793e-20)
(0.199988 -0.0336726 -3.43868e-20)
(0.200238 -0.0350853 -7.05996e-20)
(0.20066 -0.0361708 7.14905e-20)
(0.201254 -0.0368874 -3.55897e-20)
(0.202017 -0.0371766 0)
(0.202935 -0.0369648 -1.12135e-21)
(0.203973 -0.0361751 0)
(0.205091 -0.0347212 0)
(0.206225 -0.0325441 -2.01152e-20)
(0.207302 -0.0296155 1.90217e-20)
(0.208238 -0.0259483 0)
(0.20895 -0.0216064 -1.51602e-22)
(0.209368 -0.0167063 1.45925e-19)
(0.209444 -0.0114104 -1.45919e-19)
(0.209156 -0.00591315 1.50021e-22)
(0.208517 -0.000422138 0)
(0.207568 0.00486205 1.89379e-20)
(0.206372 0.00976397 -1.76777e-20)
(0.205008 0.0141457 -5.86792e-22)
(0.203557 0.0179136 0)
(0.202096 0.0210186 1.13528e-21)
(0.200693 0.0234517 0)
(0.199399 0.0252363 -3.40192e-20)
(0.198254 0.0264185 6.58563e-20)
(0.197282 0.0270576 -6.43202e-20)
(0.196492 0.0272188 -3.12684e-20)
(0.195909 0.0269829 6.25023e-20)
(0.195551 0.0264103 0)
(0.199684 -0.0312087 0)
(0.199685 -0.0331079 -7.0055e-20)
(0.199816 -0.0346719 6.89275e-20)
(0.200145 -0.0359713 0)
(0.200659 -0.0369581 0)
(0.201361 -0.0375836 -1.10095e-21)
(0.202245 -0.0377842 0)
(0.203296 -0.0374839 1.17539e-21)
(0.204478 -0.0366031 -1.88574e-20)
(0.205741 -0.0350611 1.89885e-20)
(0.207018 -0.0328022 2.00516e-20)
(0.208226 -0.0298018 -1.95385e-20)
(0.209274 -0.0260769 -6.17604e-22)
(0.210072 -0.0216941 3.13076e-22)
(0.210545 -0.0167702 1.90227e-19)
(0.21064 -0.0114652 -1.90207e-19)
(0.210337 -0.00596902 -3.21104e-22)
(0.209648 -0.000483044 6.43403e-22)
(0.208618 0.00479906 -2.03181e-20)
(0.207315 0.00970812 1.95966e-20)
(0.205823 0.014111 2.05077e-20)
(0.204229 0.0179167 -1.97508e-20)
(0.202616 0.021077 -1.18977e-21)
(0.201056 0.0235813 0)
(0.199606 0.0254501 1.18098e-21)
(0.198308 0.0267264 0)
(0.197187 0.0274659 0)
(0.196256 0.0277303 6.85693e-20)
(0.195536 0.0275966 -6.54859e-20)
(0.195053 0.0271374 0)
(0.199292 -0.0324897 -6.59909e-20)
(0.199365 -0.0342361 1.04068e-19)
(0.199577 -0.035688 -3.45109e-20)
(0.199999 -0.0368939 0)
(0.20062 -0.0377988 -3.56734e-20)
(0.201444 -0.0383472 3.50317e-20)
(0.202465 -0.0384702 -3.58422e-20)
(0.203663 -0.0380892 3.7334e-20)
(0.205 -0.0371225 0)
(0.206419 -0.0354936 1.20226e-21)
(0.207846 -0.0331495 -1.99939e-20)
(0.20919 -0.0300689 9.90617e-21)
(0.210352 -0.0262728 1.14321e-21)
(0.211237 -0.0218308 1.00777e-20)
(0.211763 -0.0168609 2.36045e-19)
(0.211877 -0.0115225 -2.3604e-19)
(0.211556 -0.00600275 1.12065e-20)
(0.210814 -0.000498703 -1.30424e-21)
(0.2097 0.00480098 1.0908e-20)
(0.208285 0.00973205 -2.16551e-20)
(0.206659 0.0141656 -1.36048e-21)
(0.204915 0.0180134 0)
(0.203141 0.0212283 4.16439e-20)
(0.201414 0.0237994 -4.25434e-20)
(0.199796 0.0257456 4.13076e-20)
(0.198332 0.0271075 -3.95213e-20)
(0.197051 0.0279386 -2.43934e-21)
(0.195967 0.028298 -3.70945e-20)
(0.195101 0.0282595 1.06409e-19)
(0.194483 0.0279028 -7.44141e-20)
(0.198821 -0.0337479 3.18352e-20)
(0.198966 -0.0353716 -3.59744e-20)
(0.199271 -0.0367365 -3.66575e-20)
(0.199797 -0.0378697 3.71889e-20)
(0.200538 -0.0387093 -3.58686e-20)
(0.201496 -0.0391929 3.86379e-20)
(0.202663 -0.0392473 1.10067e-21)
(0.204017 -0.0387911 0)
(0.205513 -0.0377412 -1.96064e-20)
(0.207091 -0.036024 -1.59532e-21)
(0.208666 -0.0335887 -1.63677e-21)
(0.210142 -0.0304176 2.1355e-20)
(0.211414 -0.0265354 1.0131e-20)
(0.21238 -0.0220152 -1.63518e-20)
(0.212956 -0.0169771 2.88571e-19)
(0.213084 -0.0115812 -2.7736e-19)
(0.212743 -0.00601344 -1.72464e-20)
(0.211948 -0.000468251 1.29627e-20)
(0.210749 0.00486921 2.32966e-20)
(0.209224 0.00983844 1.5338e-21)
(0.207464 0.0143139 1.41966e-21)
(0.20557 0.0182102 -2.28958e-20)
(0.203633 0.0214812 0)
(0.201737 0.0241166 -1.45167e-21)
(0.199947 0.0261345 4.05813e-20)
(0.198314 0.0275742 -4.27268e-20)
(0.196867 0.0284876 4.11306e-20)
(0.195625 0.0289327 -3.8063e-20)
(0.194606 0.0289811 -3.64292e-20)
(0.193846 0.0287164 4.13464e-20)
(0.19826 -0.0350083 0)
(0.198484 -0.0365398 -3.17294e-20)
(0.198891 -0.0378414 3.8745e-20)
(0.199532 -0.0389199 -3.74857e-20)
(0.200401 -0.0397073 3.57435e-20)
(0.2015 -0.0401354 -3.46552e-20)
(0.20282 -0.0401267 3.49568e-20)
(0.204331 -0.0395971 2.37179e-21)
(0.205987 -0.038463 1.22148e-21)
(0.207718 -0.0366524 1.25993e-21)
(0.209436 -0.0341173 1.32445e-21)
(0.211036 -0.0308433 -6.80276e-22)
(0.212408 -0.0268593 1.19544e-20)
(0.213446 -0.0222421 -5.51159e-21)
(0.214063 -0.017115 3.26111e-19)
(0.2142 -0.0116393 -3.37974e-19)
(0.213835 -0.00600113 -6.23334e-21)
(0.212986 -0.000393488 1.06892e-20)
(0.211704 0.00500085 -7.83097e-22)
(0.210071 0.0100242 -3.11023e-21)
(0.208184 0.0145537 -1.56943e-21)
(0.206144 0.0185061 -1.55928e-21)
(0.20405 0.0218371 -3.0842e-21)
(0.201989 0.0245367 5.06324e-20)
(0.200031 0.0266231 -5.01066e-20)
(0.198228 0.028135 4.56724e-20)
(0.196616 0.0291234 -4.22796e-20)
(0.195214 0.0296457 3.7851e-20)
(0.194041 0.0297725 -4.52213e-20)
(0.193136 0.0295894 0)
(0.197597 -0.0362996 0)
(0.197908 -0.0377669 -2.05557e-21)
(0.198425 -0.0390251 3.01562e-20)
(0.199188 -0.0400632 2.71348e-22)
(0.200192 -0.0408079 -3.5785e-20)
(0.201437 -0.0411859 -2.35005e-21)
(0.202909 -0.0411156 -2.32983e-21)
(0.204577 -0.0405108 1.7288e-20)
(0.206386 -0.0392876 -2.12496e-20)
(0.208263 -0.0373758 -2.82317e-23)
(0.210111 -0.0347296 1.09702e-20)
(0.211823 -0.0313389 -1.10361e-20)
(0.213281 -0.0272369 5.1509e-21)
(0.214379 -0.0225047 -5.89448e-21)
(0.215026 -0.017269 3.82597e-19)
(0.215164 -0.0116936 -3.82628e-19)
(0.214772 -0.00596498 -6.51478e-21)
(0.213867 -0.000275829 7.30934e-21)
(0.212506 0.00519272 -1.2502e-20)
(0.210771 0.010285 1.6572e-20)
(0.208762 0.0148806 -4.00801e-23)
(0.206585 0.0188979 -2.64921e-20)
(0.204343 0.0222939 2.94103e-20)
(0.202125 0.0250598 3.27367e-21)
(0.200005 0.0272139 3.11673e-21)
(0.198039 0.0287946 -4.92945e-20)
(0.196266 0.0298527 5.0943e-22)
(0.194707 0.0304454 5.31927e-20)
(0.193384 0.0306431 0)
(0.192335 0.0305331 0)
(0.196817 -0.0376504 0)
(0.197224 -0.0390769 3.5638e-20)
(0.197857 -0.0403069 3.08091e-22)
(0.198747 -0.0413147 3.55585e-22)
(0.199889 -0.042022 -6.98296e-20)
(0.201279 -0.0423511 3.67888e-20)
(0.202901 -0.0422169 2.43508e-21)
(0.204718 -0.0415314 0)
(0.206672 -0.0402108 -1.9628e-20)
(0.208681 -0.0381866 1.9741e-20)
(0.210647 -0.0354164 -1.13377e-20)
(0.212454 -0.0318941 -3.99241e-22)
(0.213984 -0.0276581 1.18656e-20)
(0.215126 -0.0227939 -3.91655e-22)
(0.215792 -0.0174322 4.35282e-19)
(0.215922 -0.0117393 -4.35507e-19)
(0.215496 -0.00590321 4.307e-22)
(0.214535 -0.000116223 1.40855e-20)
(0.213096 0.00544154 2.23515e-22)
(0.211264 0.0106161 -1.77144e-20)
(0.209142 0.0152886 3.03713e-20)
(0.206839 0.0193794 -2.83917e-20)
(0.204458 0.0228467 0)
(0.202094 0.0256822 -3.42175e-21)
(0.199823 0.027905 5.43605e-20)
(0.197704 0.0295532 -1.10127e-19)
(0.195778 0.0306778 5.1042e-22)
(0.194069 0.031336 -2.50874e-21)
(0.1926 0.0315985 4.94884e-20)
(0.191414 0.0315555 0)
(0.195901 -0.0390871 4.01024e-21)
(0.19641 -0.0404904 0)
(0.197162 -0.0417027 2.16874e-21)
(0.198181 -0.0426853 -3.29772e-20)
(0.19946 -0.0433562 3.55822e-20)
(0.200993 -0.0436332 -3.76485e-20)
(0.202759 -0.0434287 3.81773e-20)
(0.204717 -0.0426531 2.04329e-20)
(0.206802 -0.0412235 -4.46563e-20)
(0.208929 -0.0390737 -2.16187e-21)
(0.210994 -0.0361649 2.11395e-20)
(0.212878 -0.0324959 -1.22828e-20)
(0.214462 -0.0281102 5.9249e-21)
(0.215634 -0.0230986 1.0198e-20)
(0.216304 -0.0175957 4.86962e-19)
(0.216416 -0.0117708 -4.93681e-19)
(0.21595 -0.00581316 1.04875e-20)
(0.214931 8.48772e-05 7.68236e-21)
(0.213416 0.00574406 -1.49417e-20)
(0.211494 0.0110118 3.44777e-20)
(0.209267 0.015771 2.22333e-21)
(0.206848 0.0199432 -5.71472e-20)
(0.204341 0.0234878 3.02204e-20)
(0.201844 0.0263972 5.96545e-20)
(0.199434 0.0286907 -5.88282e-20)
(0.197173 0.0304069 5.71497e-20)
(0.195104 0.0315966 -5.99046e-20)
(0.193254 0.0323173 3.47214e-21)
(0.191649 0.0326404 0)
(0.190335 0.0326613 -6.65167e-21)
(0.194823 -0.0406323 -4.17042e-21)
(0.195438 -0.0420238 3.4692e-20)
(0.196311 -0.0432232 -3.33496e-20)
(0.197458 -0.0441812 -2.21273e-21)
(0.198872 -0.0448118 -2.28959e-21)
(0.200542 -0.0450294 0)
(0.202442 -0.0447441 2.38892e-21)
(0.204527 -0.0438658 2.32769e-20)
(0.206728 -0.0423129 -4.15142e-20)
(0.208955 -0.0400222 2.35011e-20)
(0.2111 -0.0369593 1.4932e-21)
(0.213043 -0.0331284 -1.27862e-20)
(0.214662 -0.0285787 1.28549e-20)
(0.215846 -0.0234061 4.31355e-22)
(0.216507 -0.0177496 5.47176e-19)
(0.216589 -0.0117812 -5.4693e-19)
(0.216078 -0.00569129 -4.85796e-22)
(0.214998 0.000327617 1.60146e-20)
(0.213409 0.00609733 -1.59284e-20)
(0.211401 0.0114667 -2.01644e-21)
(0.209079 0.0163201 3.09095e-20)
(0.206554 0.0205803 -6.74429e-20)
(0.203934 0.0242077 2.83139e-20)
(0.201315 0.0271953 -4.07833e-21)
(0.19878 0.0295626 0)
(0.196391 0.0313485 3.80699e-21)
(0.194192 0.0326034 3.71394e-21)
(0.192212 0.0333854 -5.82536e-20)
(0.19048 0.0337665 5.36437e-20)
(0.189052 0.0338507 6.91735e-21)
(0.193551 -0.0423041 0)
(0.194273 -0.0436883 -1.17398e-22)
(0.195266 -0.0448746 -3.32565e-20)
(0.196538 -0.0458033 3.38948e-20)
(0.19808 -0.0463851 3.61471e-20)
(0.199878 -0.0465316 -5.8002e-20)
(0.201901 -0.0461513 1.67659e-20)
(0.204099 -0.0451545 -7.72186e-23)
(0.206398 -0.0434617 2.69569e-21)
(0.208706 -0.0410134 0)
(0.210911 -0.0377806 1.25725e-20)
(0.212891 -0.0337733 -2.59863e-20)
(0.214525 -0.0290466 1.3395e-20)
(0.215703 -0.0237019 -4.51366e-22)
(0.21634 -0.0178823 6.06645e-19)
(0.216383 -0.0117622 -6.06885e-19)
(0.215819 -0.00553323 5.08343e-22)
(0.214676 0.000612753 1.70806e-20)
(0.213015 0.0064987 -3.43765e-20)
(0.210926 0.0119751 1.72635e-20)
(0.208516 0.0169278 0)
(0.205896 0.021281 -4.45455e-21)
(0.203175 0.0249957 -1.26851e-22)
(0.200449 0.0280654 3.87605e-20)
(0.197802 0.0305098 -9.74557e-20)
(0.195298 0.0323676 6.66628e-20)
(0.192981 0.0336892 6.467e-20)
(0.190884 0.0345325 -6.73234e-20)
(0.189037 0.0349706 -1.33657e-22)
(0.187509 0.0351199 0)
(0.192045 -0.0441143 0)
(0.192871 -0.0454888 2.94007e-20)
(0.193981 -0.0466564 -3.20671e-20)
(0.195373 -0.0475462 -3.21156e-20)
(0.197036 -0.0480662 3.48164e-20)
(0.19895 -0.0481256 2.13454e-20)
(0.201082 -0.0476327 8.37239e-22)
(0.203375 -0.046499 -2.30727e-20)
(0.205754 -0.044648 -5.55954e-21)
(0.208121 -0.042025 0)
(0.210364 -0.0386066 0)
(0.21236 -0.0344095 1.21977e-20)
(0.213989 -0.029495 -1.48629e-20)
(0.215144 -0.0239699 0)
(0.215742 -0.0179811 6.68633e-19)
(0.215734 -0.0117051 -6.68634e-19)
(0.215111 -0.00533385 0)
(0.213902 0.00094155 -1.70871e-20)
(0.21217 0.00694581 2.04352e-20)
(0.210006 0.0125314 0)
(0.207516 0.0175859 0)
(0.204812 0.0220347 9.42737e-21)
(0.202001 0.0258396 -3.29456e-20)
(0.199182 0.0289945 -8.11253e-23)
(0.196437 0.0315189 3.19984e-20)
(0.193831 0.0334513 7.13303e-20)
(0.19141 0.0348417 -7.44287e-20)
(0.189207 0.0357474 -6.74883e-20)
(0.187258 0.0362425 7.01048e-20)
(0.185646 0.0364606 0)
(0.190255 -0.0460676 0)
(0.191181 -0.0474233 0)
(0.192402 -0.0485611 0)
(0.193908 -0.0493976 3.1452e-20)
(0.195681 -0.0498382 -1.43508e-20)
(0.197698 -0.0497911 -2.0376e-20)
(0.199922 -0.0491651 -2.41573e-21)
(0.202293 -0.0478741 -2.1712e-20)
(0.20473 -0.0458455 -1.25751e-21)
(0.207135 -0.0430303 2.36311e-20)
(0.209392 -0.0394117 1.62737e-21)
(0.211382 -0.0350132 3.50913e-21)
(0.212985 -0.0299028 9.60375e-21)
(0.214099 -0.0241922 -7.25964e-21)
(0.214644 -0.0180319 7.32955e-19)
(0.214575 -0.0115998 -7.3295e-19)
(0.213887 -0.00508743 -1.00129e-20)
(0.212609 0.00131563 6.99559e-21)
(0.210809 0.00743642 -4.90906e-21)
(0.208575 0.0131298 -2.52928e-21)
(0.206013 0.0182854 4.06109e-20)
(0.203235 0.0228301 6.39343e-22)
(0.200347 0.0267264 -4.00401e-20)
(0.197446 0.0299681 5.06251e-21)
(0.194616 0.0325747 -3.41855e-20)
(0.191922 0.0345841 -4.3114e-20)
(0.18941 0.0360454 7.97587e-20)
(0.187114 0.0370153 0)
(0.185072 0.0375685 0)
(0.183392 0.0378601 0)
(0.188121 -0.0481601 2.90319e-20)
(0.189138 -0.0494812 -3.05119e-20)
(0.190464 -0.0505728 0)
(0.192074 -0.051337 1.6401e-20)
(0.193946 -0.0516767 -1.89469e-20)
(0.196052 -0.0515004 -1.87129e-20)
(0.198351 -0.0507186 2.40917e-20)
(0.200779 -0.0492483 0)
(0.203253 -0.0470224 2.91103e-21)
(0.205671 -0.0439982 0)
(0.207921 -0.0401663 -1.44956e-23)
(0.209882 -0.0355577 -4.1956e-24)
(0.211439 -0.0302464 -1.96244e-21)
(0.212494 -0.0243493 -1.04973e-21)
(0.212971 -0.0180195 8.00712e-19)
(0.212832 -0.0114355 -8.00742e-19)
(0.212072 -0.00478777 1.22994e-21)
(0.210726 0.00173674 2.55026e-21)
(0.208859 0.00796811 -6.42939e-23)
(0.206561 0.0137642 -7.13867e-23)
(0.203936 0.019017 0)
(0.201094 0.023655 -5.33775e-21)
(0.19814 0.0276414 0)
(0.195171 0.0309701 3.21113e-20)
(0.192269 0.0336599 -4.18515e-20)
(0.189499 0.0357479 -3.6118e-20)
(0.186908 0.0372821 4.03277e-20)
(0.18453 0.038318 0)
(0.182407 0.0389312 -7.00882e-20)
(0.180672 0.0393014 7.54167e-20)
(0.185568 -0.0503775 0)
(0.186668 -0.0516419 1.51532e-22)
(0.188092 -0.0526663 -3.14026e-20)
(0.189796 -0.0533348 3.03634e-20)
(0.191754 -0.0535488 -2.01644e-21)
(0.193933 -0.0532179 4.50488e-21)
(0.196287 -0.0522555 -2.50073e-21)
(0.198751 -0.0505836 0)
(0.201239 -0.048141 0)
(0.203648 -0.0448926 0)
(0.205865 -0.0408371 -1.74965e-21)
(0.207775 -0.0360126 1.38313e-20)
(0.209266 -0.0304998 -2.3312e-20)
(0.210244 -0.0244197 1.36376e-20)
(0.210642 -0.0179273 8.65951e-19)
(0.210423 -0.0112009 -8.75664e-19)
(0.209588 -0.00442848 1.51341e-20)
(0.208172 0.00220643 -3.4103e-20)
(0.206242 0.00853788 2.47322e-20)
(0.203886 0.0144274 2.81706e-21)
(0.201207 0.0197698 2.93572e-21)
(0.198313 0.0244955 0)
(0.195306 0.0285683 0)
(0.19228 0.031982 5.63962e-21)
(0.189318 0.0347545 -1.13073e-20)
(0.186485 0.0369219 5.6446e-21)
(0.183826 0.0385306 8.62217e-20)
(0.181377 0.0396343 -7.88597e-20)
(0.179182 0.0403092 2.01193e-22)
(0.177405 0.0407633 0)
(0.182509 -0.0526937 2.58317e-20)
(0.183681 -0.0538736 -2.38552e-20)
(0.185194 -0.0548052 -1.22864e-20)
(0.186982 -0.0553508 1.4424e-20)
(0.189012 -0.0554111 1.87799e-20)
(0.191247 -0.0548982 -1.93367e-20)
(0.193638 -0.0537299 -2.02273e-20)
(0.196116 -0.051834 1.79776e-20)
(0.198593 -0.0491569 -1.38124e-20)
(0.200968 -0.0456717 1.25345e-20)
(0.20313 -0.0413855 -1.6773e-20)
(0.204966 -0.0363441 6.94287e-21)
(0.206371 -0.030634 7.18065e-21)
(0.207257 -0.0243799 -5.82881e-22)
(0.207563 -0.0177376 9.42722e-19)
(0.207257 -0.0108839 -9.42767e-19)
(0.206343 -0.0040032 7.02308e-22)
(0.204859 0.00272566 1.32664e-20)
(0.202871 0.00914169 1.25599e-20)
(0.200465 0.0151108 -2.40253e-20)
(0.197743 0.0205313 2.19434e-20)
(0.194807 0.0253355 -2.14618e-20)
(0.191759 0.0294881 5.61942e-20)
(0.18869 0.0329825 -4.89527e-20)
(0.185681 0.0358356 -4.25572e-20)
(0.182795 0.0380818 4.16241e-20)
(0.180079 0.0397654 4.62701e-20)
(0.177568 0.0409383 -5.06648e-20)
(0.17531 0.041677 -9.12141e-20)
(0.1735 0.0422195 8.66589e-20)
(0.178837 -0.055068 1.37413e-21)
(0.180071 -0.0561305 2.42356e-20)
(0.181665 -0.0569393 -2.63698e-20)
(0.183526 -0.0573316 0)
(0.185613 -0.0572081 1.8459e-21)
(0.187887 -0.0564848 0)
(0.190294 -0.0550852 2.3271e-21)
(0.192763 -0.0529445 -2.23224e-20)
(0.195206 -0.0500175 2.43345e-20)
(0.197522 -0.0462866 -1.65194e-21)
(0.199604 -0.0417674 3.69891e-21)
(0.201345 -0.0365136 2.04346e-21)
(0.202645 -0.0306167 1.11597e-21)
(0.203425 -0.0242041 6.05012e-22)
(0.203627 -0.0174313 1.01667e-18)
(0.203228 -0.0104721 -1.0167e-18)
(0.202235 -0.00350605 -7.28972e-22)
(0.200686 0.00329418 -1.52065e-21)
(0.198646 0.00977362 3.23335e-21)
(0.196201 0.0158034 0)
(0.193446 0.0212859 3.36707e-21)
(0.190482 0.0261555 5.04149e-20)
(0.187407 0.030378 -5.24978e-20)
(0.184308 0.0339461 -6.72572e-21)
(0.181264 0.0368754 0)
(0.178337 0.0391982 -6.50603e-21)
(0.175574 0.0409564 0)
(0.173009 0.0421991 -8.98859e-20)
(0.170696 0.0430033 9.34976e-20)
(0.168859 0.0436377 -5.86045e-21)
(0.174425 -0.0574417 1.9849e-20)
(0.175711 -0.0583496 -2.0927e-20)
(0.177378 -0.059002 1.98037e-22)
(0.179302 -0.0592084 -1.5023e-20)
(0.181433 -0.0588695 2.72683e-20)
(0.183726 -0.057907 -1.76475e-20)
(0.186128 -0.0562521 -2.39545e-21)
(0.188565 -0.0538484 1.07684e-22)
(0.190949 -0.0506604 0)
(0.193182 -0.04668 1.70596e-21)
(0.195161 -0.0419321 1.21615e-20)
(0.196784 -0.0364772 -1.82584e-20)
(0.197962 -0.0304116 -1.17238e-21)
(0.198621 -0.0238641 4.66237e-21)
(0.198713 -0.0169882 1.08679e-18)
(0.198217 -0.0099533 -1.09821e-18)
(0.197145 -0.00293218 6.86687e-21)
(0.195536 0.00390978 1.66236e-21)
(0.193454 0.0104249 -3.09964e-20)
(0.190981 0.0164906 2.73353e-20)
(0.188208 0.0220135 -3.47715e-21)
(0.185231 0.026931 0)
(0.182143 0.0312095 -6.98475e-21)
(0.179029 0.0348412 6.92322e-21)
(0.175963 0.0378398 -4.86562e-20)
(0.173007 0.0402354 1.15696e-19)
(0.170207 0.0420663 -4.63779e-20)
(0.167596 0.0433789 3.00472e-22)
(0.165232 0.0442496 -9.822e-20)
(0.163373 0.0449783 1.05356e-19)
(0.16912 -0.0597333 0)
(0.170452 -0.0604452 0)
(0.172184 -0.0609059 1.19721e-20)
(0.17416 -0.0608919 -9.4108e-21)
(0.17632 -0.0603057 0)
(0.178615 -0.0590768 2.02421e-21)
(0.18099 -0.0571453 2.17692e-21)
(0.183371 -0.054465 2.66214e-21)
(0.18567 -0.0510105 0)
(0.187795 -0.0467843 0)
(0.189647 -0.04182 1.95006e-21)
(0.191133 -0.0361846 -1.02744e-20)
(0.192172 -0.029978 1.16973e-20)
(0.192699 -0.0233287 6.63235e-22)
(0.192672 -0.0163869 1.16893e-18)
(0.192079 -0.00931528 -1.16936e-18)
(0.190932 -0.00227854 -8.17957e-22)
(0.189272 0.00456705 1.07636e-20)
(0.187161 0.0110824 -1.41128e-20)
(0.184674 0.017152 0)
(0.1819 0.0226878 0)
(0.178928 0.0276302 0)
(0.175844 0.0319463 0)
(0.172731 0.0356276 -7.72294e-21)
(0.169659 0.0386857 -7.28681e-21)
(0.166687 0.0411476 0)
(0.163859 0.0430476 -6.39408e-20)
(0.161209 0.0444288 4.86069e-20)
(0.1588 0.0453668 0)
(0.156921 0.0461907 0)
(0.162737 -0.0618312 7.84724e-22)
(0.164108 -0.0623042 0)
(0.165902 -0.0625354 0)
(0.167921 -0.0622656 0)
(0.170094 -0.061402 0)
(0.172372 -0.0598827 0)
(0.174697 -0.0576587 -2.22332e-21)
(0.176997 -0.0546947 -1.23293e-21)
(0.179186 -0.0509771 1.27265e-20)
(0.181177 -0.0465184 2.81138e-23)
(0.182879 -0.0413609 -3.37129e-20)
(0.184209 -0.0355772 2.76275e-20)
(0.185094 -0.0292692 1.01123e-21)
(0.185479 -0.0225634 -1.065e-20)
(0.185331 -0.0156047 1.24529e-18)
(0.184642 -0.00854713 -1.24536e-18)
(0.183428 -0.00154515 -1.44273e-20)
(0.181729 0.0052557 -8.4815e-22)
(0.179604 0.0117263 4.62983e-20)
(0.177123 0.0177594 -5.90134e-20)
(0.174368 0.0232728 3.11088e-21)
(0.171421 0.0282102 3.19974e-20)
(0.168363 0.0325399 4.15468e-21)
(0.16527 0.036252 7.88749e-21)
(0.162209 0.0393559 0)
(0.159236 0.0418745 0)
(0.156392 0.0438381 0)
(0.153712 0.0452853 0)
(0.151262 0.0462904 0)
(0.149361 0.0472084 -7.19968e-21)
(0.15505 -0.0635822 -1.29993e-21)
(0.156459 -0.0637729 5.59906e-21)
(0.158311 -0.0637358 -5.75566e-21)
(0.160361 -0.063177 0)
(0.162532 -0.0620095 1.14993e-20)
(0.164772 -0.0601818 -1.33355e-20)
(0.167024 -0.0576573 1.84925e-20)
(0.169216 -0.0544133 -1.55491e-20)
(0.171269 -0.0504476 0)
(0.1731 -0.0457833 -1.30501e-20)
(0.17463 -0.0404703 -4.85785e-23)
(0.175785 -0.0345856 2.7102e-20)
(0.176503 -0.0282313 -1.11525e-20)
(0.176739 -0.0215299 -6.07479e-21)
(0.17647 -0.0146184 1.32539e-18)
(0.175692 -0.00764005 -1.3118e-18)
(0.174423 -0.000736979 -7.13122e-21)
(0.172703 0.00595787 -1.40846e-20)
(0.170584 0.0123268 4.90595e-20)
(0.168133 0.0182721 1.52111e-21)
(0.165423 0.023718 -3.77311e-20)
(0.162527 0.0286121 -4.4199e-21)
(0.159521 0.0329236 -7.84261e-20)
(0.156472 0.0366415 6.36561e-20)
(0.153443 0.0397721 -5.94154e-20)
(0.150486 0.0423341 6.62168e-20)
(0.147641 0.0443526 0)
(0.144941 0.0458612 -6.29012e-20)
(0.142456 0.0469316 6.08993e-20)
(0.140531 0.0479409 1.49892e-20)
(0.145779 -0.0647717 -2.07687e-21)
(0.147227 -0.0646381 2.71258e-21)
(0.149132 -0.0642962 4.38815e-21)
(0.151202 -0.0634205 -4.79588e-21)
(0.153353 -0.0619301 -1.04638e-20)
(0.155533 -0.0597864 2.53433e-20)
(0.157685 -0.0569668 -2.2982e-20)
(0.159741 -0.0534613 7.14635e-21)
(0.161629 -0.0492801 0)
(0.163275 -0.0444557 1.47496e-20)
(0.164611 -0.0390447 -1.30131e-20)
(0.165574 -0.0331267 1.17179e-21)
(0.166115 -0.0268015 5.65092e-21)
(0.1662 -0.0201853 -8.84676e-21)
(0.165814 -0.0134045 1.39097e-18)
(0.164957 -0.00658933 -1.38408e-18)
(0.163651 0.00013295 -1.17426e-20)
(0.161932 0.0066439 7.94593e-21)
(0.159848 0.0128389 -2.19041e-21)
(0.157458 0.0186307 -4.49965e-20)
(0.154824 0.0239512 4.01169e-20)
(0.152013 0.0287519 9.17014e-21)
(0.14909 0.0330033 4.15567e-20)
(0.146115 0.0366931 -1.00558e-19)
(0.143146 0.0398239 1.26006e-19)
(0.140229 0.04241 -6.12716e-20)
(0.137401 0.04447 -6.9415e-20)
(0.134696 0.046032 6.71934e-20)
(0.132185 0.0471638 6.36279e-20)
(0.130235 0.0482585 -8.08028e-20)
(0.134567 -0.0650915 1.20802e-22)
(0.136059 -0.0645972 -1.40959e-22)
(0.138009 -0.0639223 -1.40025e-21)
(0.140084 -0.0627116 1.86275e-21)
(0.142194 -0.0608936 8.74206e-22)
(0.144285 -0.058444 -1.73305e-21)
(0.146306 -0.0553548 1.32992e-22)
(0.148195 -0.0516299 0)
(0.149888 -0.0472906 0)
(0.151323 -0.0423782 1.45344e-20)
(0.152444 -0.036954 -1.6831e-20)
(0.153201 -0.0310977 -1.18015e-21)
(0.153559 -0.0249046 0)
(0.153494 -0.0184813 -2.4715e-21)
(0.153001 -0.011941 1.45337e-18)
(0.152084 -0.00539766 -1.44627e-18)
(0.150766 0.00103837 -4.92349e-21)
(0.149079 0.00726531 0)
(0.147066 0.0131933 2.20601e-21)
(0.144775 0.0187468 -3.35202e-20)
(0.142259 0.0238661 3.27017e-20)
(0.139575 0.0285073 -4.71628e-21)
(0.136776 0.0326422 0)
(0.133915 0.0362569 2.83338e-22)
(0.131042 0.0393505 1.42356e-20)
(0.128198 0.0419315 -9.12927e-21)
(0.125416 0.0440123 7.38473e-20)
(0.122726 0.0456138 8.01209e-24)
(0.120205 0.0467993 7.67173e-21)
(0.118232 0.0479694 -6.08669e-20)
(0.120951 -0.0640816 -3.94381e-21)
(0.122487 -0.0632062 3.55814e-21)
(0.124467 -0.0621856 0)
(0.126524 -0.0606428 1.28327e-21)
(0.128561 -0.0585178 -1.21892e-21)
(0.130529 -0.0558017 4.52219e-21)
(0.132382 -0.0525018 -9.64492e-21)
(0.134068 -0.0486349 5.50596e-21)
(0.135534 -0.0442327 0)
(0.13673 -0.0393431 0)
(0.137616 -0.0340297 -9.54157e-21)
(0.138156 -0.0283695 9.88769e-21)
(0.13833 -0.0224498 0)
(0.138125 -0.0163643 -7.78059e-22)
(0.137543 -0.0102097 1.50061e-18)
(0.136594 -0.00408119 -1.50067e-18)
(0.135299 0.00193064 1.02961e-21)
(0.133686 0.00774273 0)
(0.131791 0.0132816 1.68988e-20)
(0.12965 0.0184848 -1.64875e-20)
(0.127307 0.0233016 0)
(0.124803 0.0276935 0)
(0.122184 0.0316338 4.66772e-20)
(0.11949 0.035107 -8.6381e-20)
(0.116763 0.0381082 3.50646e-20)
(0.114039 0.04064 -7.49198e-20)
(0.111343 0.0427075 8.25248e-20)
(0.108706 0.0443243 0)
(0.106203 0.045547 -8.08154e-20)
(0.104217 0.046774 6.41637e-20)
(0.1043 -0.0610257 -7.7407e-21)
(0.105868 -0.05978 7.51066e-21)
(0.107846 -0.0584345 -5.66754e-21)
(0.109842 -0.0566025 3.06248e-21)
(0.111759 -0.0542377 3.70009e-21)
(0.113554 -0.051346 -3.41133e-21)
(0.115193 -0.0479489 2.54896e-21)
(0.116633 -0.0440747 8.35783e-22)
(0.117836 -0.0397631 -1.02711e-20)
(0.118767 -0.0350662 2.3901e-20)
(0.119402 -0.0300464 -1.36362e-20)
(0.119722 -0.0247741 -1.12004e-20)
(0.119719 -0.0193246 1.60583e-20)
(0.119394 -0.0137755 -9.30083e-21)
(0.118754 -0.00820328 1.53958e-18)
(0.117814 -0.0026814 -1.53192e-18)
(0.116592 0.00272167 -1.30935e-20)
(0.115111 0.00794359 2.7975e-20)
(0.113396 0.0129288 -1.64636e-20)
(0.111474 0.0176292 -4.13897e-20)
(0.109374 0.0220042 8.32468e-20)
(0.107126 0.026021 -4.15554e-20)
(0.10476 0.0296547 -5.18451e-21)
(0.102307 0.0328884 4.32837e-20)
(0.0997988 0.0357131 -1.22186e-19)