/*--------------------------------*- C++ -*----------------------------------*\
  =========                 |
  \\      /  F ield         | OpenFOAM: The Open Source CFD Toolbox
   \\    /   O peration     | Website:  https://openfoam.org
    \\  /    A nd           | Version:  12
     \\/     M anipulation  |
\*---------------------------------------------------------------------------*/
FoamFile
{
    format      ascii;
    class       volSymmTensorField;
    location    "40";
    object      UPrime2Mean;
}
// * * * * * * * * * * * * * * * * * * * * * * * * * * * * * * * * * * * * * //

dimensions      [0 2 -2 0 0 0 0];

internalField   nonuniform List<symmTensor> 
6750
(
(2.43083e-10 9.72191e-09 0 4.94914e-07 0 0)
(4.64909e-09 1.35744e-07 0 5.93588e-06 0 0)
(1.49951e-08 4.01055e-07 0 1.7049e-05 0 0)
(2.73599e-08 7.40484e-07 0 3.26206e-05 0 0)
(7.93193e-08 1.74844e-06 0 5.14282e-05 0 0)
(1.50828e-10 3.13257e-09 0 4.29362e-07 0 0)
(1.35207e-09 8.20812e-08 0 5.48628e-06 0 0)
(8.27324e-09 3.36786e-07 0 1.58025e-05 0 0)
(2.98369e-08 8.69591e-07 0 2.99043e-05 0 0)
(8.43611e-08 1.82443e-06 0 4.63016e-05 0 0)
(1.23976e-10 3.20075e-09 0 3.974e-07 0 0)
(2.73372e-09 1.14672e-07 0 5.16837e-06 0 0)
(1.74908e-08 5.00926e-07 0 1.47743e-05 0 0)
(6.03795e-08 1.26249e-06 0 2.74964e-05 0 0)
(1.45061e-07 2.38922e-06 0 4.16045e-05 0 0)
(1.02875e-10 2.89206e-09 0 3.50265e-07 0 0)
(5.25035e-09 1.53218e-07 0 4.67861e-06 0 0)
(3.38077e-08 6.67178e-07 0 1.33515e-05 0 0)
(1.07081e-07 1.61217e-06 0 2.46488e-05 0 0)
(2.31749e-07 2.89389e-06 0 3.69359e-05 0 0)
(7.1791e-11 2.2821e-09 0 2.9641e-07 0 0)
(7.82028e-09 1.76499e-07 0 4.0898e-06 0 0)
(5.21682e-08 7.7862e-07 0 1.17171e-05 0 0)
(1.60795e-07 1.85642e-06 0 2.15922e-05 0 0)
(3.35229e-07 3.27347e-06 0 3.22646e-05 0 0)
(3.64443e-11 1.42812e-09 0 2.42573e-07 0 0)
(9.96195e-09 1.84393e-07 0 3.46146e-06 0 0)
(7.03344e-08 8.36143e-07 0 9.98589e-06 0 0)
(2.17958e-07 2.00059e-06 0 1.84298e-05 0 0)
(4.5308e-07 3.52591e-06 0 2.75458e-05 0 0)
(1.06485e-11 5.76279e-10 0 1.92456e-07 0 0)
(1.17293e-08 1.81753e-07 0 2.83403e-06 0 0)
(8.82704e-08 8.51965e-07 0 8.2407e-06 0 0)
(2.78684e-07 2.06022e-06 0 1.5254e-05 0 0)
(5.85659e-07 3.65445e-06 0 2.28343e-05 0 0)
(2.7626e-12 -1.11944e-10 0 1.47686e-07 0 0)
(1.33021e-08 1.7226e-07 0 2.23518e-06 0 0)
(1.06327e-07 8.3417e-07 0 6.54923e-06 0 0)
(3.42973e-07 2.04203e-06 0 1.21636e-05 0 0)
(7.3153e-07 3.65269e-06 0 1.82442e-05 0 0)
(1.44722e-11 -5.81394e-10 0 1.08842e-07 0 0)
(1.47886e-08 1.57813e-07 0 1.68535e-06 0 0)
(1.244e-07 7.86381e-07 0 4.97195e-06 0 0)
(4.09219e-07 1.94698e-06 0 9.26406e-06 0 0)
(8.85514e-07 3.51116e-06 0 1.39229e-05 0 0)
(4.22963e-11 -8.36175e-10 0 7.60904e-08 0 0)
(1.62047e-08 1.39351e-07 0 1.20041e-06 0 0)
(1.41891e-07 7.10844e-07 0 3.56197e-06 0 0)
(4.74298e-07 1.77662e-06 0 6.65581e-06 0 0)
(1.03915e-06 3.2266e-06 0 1.00211e-05 0 0)
(7.95011e-11 -9.07644e-10 0 4.94492e-08 0 0)
(1.7503e-08 1.17526e-07 0 7.92224e-07 0 0)
(1.57915e-07 6.10607e-07 0 2.36238e-06 0 0)
(5.34268e-07 1.53723e-06 0 4.42493e-06 0 0)
(1.18215e-06 2.80767e-06 0 6.67248e-06 0 0)
(1.1839e-10 -8.35797e-10 0 2.88378e-08 0 0)
(1.85992e-08 9.30251e-08 0 4.68263e-07 0 0)
(1.71514e-07 4.90209e-07 0 1.40255e-06 0 0)
(5.85297e-07 1.24078e-06 0 2.63241e-06 0 0)
(1.30466e-06 2.27594e-06 0 3.97435e-06 0 0)
(1.51197e-10 -6.55273e-10 0 1.40541e-08 0 0)
(1.93856e-08 6.66815e-08 0 2.31387e-07 0 0)
(1.81859e-07 3.55591e-07 0 6.96332e-07 0 0)
(6.24353e-07 9.03588e-07 0 1.30914e-06 0 0)
(1.39912e-06 1.66258e-06 0 1.97833e-06 0 0)
(1.67031e-10 -3.86571e-10 0 4.75304e-09 0 0)
(1.97063e-08 3.94793e-08 0 7.99719e-08 0 0)
(1.88384e-07 2.13444e-07 0 2.42298e-07 0 0)
(6.49667e-07 5.44033e-07 0 4.56181e-07 0 0)
(1.46124e-06 1.00321e-06 0 6.89823e-07 0 0)
(1.4769e-10 -1.0108e-10 0 5.10892e-10 0 0)
(1.9208e-08 1.25562e-08 0 8.35704e-09 0 0)
(1.90943e-07 7.02902e-08 0 2.59581e-08 0 0)
(6.61152e-07 1.80049e-07 0 4.91164e-08 0 0)
(1.49058e-06 3.32821e-07 0 7.44381e-08 0 0)
(1.47432e-10 5.93954e-11 0 6.5319e-10 0 0)
(1.92115e-08 -1.2983e-08 0 8.85462e-09 0 0)
(1.90936e-07 -7.13803e-08 0 2.67367e-08 0 0)
(6.61132e-07 -1.81534e-07 0 4.99382e-08 0 0)
(1.49053e-06 -3.34325e-07 0 7.51591e-08 0 0)
(1.66234e-10 3.5163e-10 0 5.18305e-09 0 0)
(1.96969e-08 -3.99037e-08 0 8.15063e-08 0 0)
(1.88355e-07 -2.14516e-07 0 2.44669e-07 0 0)
(6.49595e-07 -5.45479e-07 0 4.5867e-07 0 0)
(1.46107e-06 -1.00464e-06 0 6.91995e-07 0 0)
(1.49869e-10 6.2753e-10 0 1.47728e-08 0 0)
(1.93671e-08 -6.70777e-08 0 2.33981e-07 0 0)
(1.81808e-07 -3.56606e-07 0 7.00325e-07 0 0)
(6.24229e-07 -9.04934e-07 0 1.31331e-06 0 0)
(1.39883e-06 -1.66385e-06 0 1.98193e-06 0 0)
(1.16826e-10 8.17919e-10 0 2.98269e-08 0 0)
(1.85744e-08 -9.33737e-08 0 4.71911e-07 0 0)
(1.71448e-07 -4.91132e-07 0 1.40815e-06 0 0)
(5.8514e-07 -1.24198e-06 0 2.6382e-06 0 0)
(1.30427e-06 -2.27697e-06 0 3.97928e-06 0 0)
(7.80451e-11 9.01975e-10 0 5.06765e-08 0 0)
(1.74761e-08 -1.17815e-07 0 7.96895e-07 0 0)
(1.57845e-07 -6.11418e-07 0 2.36954e-06 0 0)
(5.341e-07 -1.53825e-06 0 4.43224e-06 0 0)
(1.18169e-06 -2.80838e-06 0 6.67853e-06 0 0)
(4.13481e-11 8.43487e-10 0 7.75117e-08 0 0)
(1.61794e-08 -1.39571e-07 0 1.20606e-06 0 0)
(1.41828e-07 -7.11536e-07 0 3.57062e-06 0 0)
(4.74138e-07 -1.77744e-06 0 6.66451e-06 0 0)
(1.03863e-06 -3.2269e-06 0 1.0028e-05 0 0)
(1.44156e-11 6.01421e-10 0 1.10403e-07 0 0)
(1.47654e-08 -1.57946e-07 0 1.6919e-06 0 0)
(1.24335e-07 -7.86897e-07 0 4.98198e-06 0 0)
(4.09063e-07 -1.94753e-06 0 9.27379e-06 0 0)
(8.84978e-07 -3.511e-06 0 1.393e-05 0 0)
(3.81831e-12 1.44091e-10 0 1.49322e-07 0 0)
(1.32764e-08 -1.72254e-07 0 2.24247e-06 0 0)
(1.06231e-07 -8.34355e-07 0 6.56048e-06 0 0)
(3.42759e-07 -2.04209e-06 0 1.21742e-05 0 0)
(7.30985e-07 -3.65203e-06 0 1.8251e-05 0 0)
(1.27616e-11 -5.35528e-10 0 1.94094e-07 0 0)
(1.1704e-08 -1.81607e-07 0 2.84182e-06 0 0)
(8.81613e-08 -8.51814e-07 0 8.25295e-06 0 0)
(2.78481e-07 -2.06e-06 0 1.5266e-05 0 0)
(5.85148e-07 -3.65366e-06 0 2.28438e-05 0 0)
(3.94045e-11 -1.38608e-09 0 2.44156e-07 0 0)
(9.9447e-09 -1.84171e-07 0 3.46955e-06 0 0)
(7.02592e-08 -8.3589e-07 0 9.99901e-06 0 0)
(2.17864e-07 -2.00053e-06 0 1.84434e-05 0 0)
(4.52704e-07 -3.52535e-06 0 2.75578e-05 0 0)
(7.51649e-11 -2.24285e-09 0 2.97905e-07 0 0)
(7.80959e-09 -1.76218e-07 0 4.09807e-06 0 0)
(5.21174e-08 -7.78282e-07 0 1.17312e-05 0 0)
(1.60742e-07 -1.85637e-06 0 2.16081e-05 0 0)
(3.34894e-07 -3.27286e-06 0 3.22805e-05 0 0)
(1.06065e-10 -2.86008e-09 0 3.51654e-07 0 0)
(5.24463e-09 -1.52913e-07 0 4.68689e-06 0 0)
(3.37765e-08 -6.66809e-07 0 1.33665e-05 0 0)
(1.07059e-07 -1.61228e-06 0 2.46678e-05 0 0)
(2.31442e-07 -2.89308e-06 0 3.69567e-05 0 0)
(1.26181e-10 -3.17695e-09 0 3.98681e-07 0 0)
(2.72798e-09 -1.14345e-07 0 5.17651e-06 0 0)
(1.74647e-08 -5.00514e-07 0 1.479e-05 0 0)
(6.03343e-08 -1.26238e-06 0 2.7518e-05 0 0)
(1.44763e-07 -2.38743e-06 0 4.16311e-05 0 0)
(1.51622e-10 -3.12103e-09 0 4.30507e-07 0 0)
(1.34297e-09 -8.17437e-08 0 5.49403e-06 0 0)
(8.24291e-09 -3.36275e-07 0 1.58184e-05 0 0)
(2.97694e-08 -8.69107e-07 0 2.99283e-05 0 0)
(8.41641e-08 -1.82103e-06 0 4.63338e-05 0 0)
(2.41671e-10 -9.68597e-09 0 4.95745e-07 0 0)
(4.63554e-09 -1.35193e-07 0 5.94207e-06 0 0)
(1.49717e-08 -3.99854e-07 0 1.70627e-05 0 0)
(2.73452e-08 -7.38144e-07 0 3.26431e-05 0 0)
(7.93137e-08 -1.74175e-06 0 5.14607e-05 0 0)
(1.27515e-06 1.1284e-05 0 0.000108488 0 0)
(3.02352e-06 2.01595e-05 0 0.000142649 0 0)
(5.16795e-06 2.94164e-05 0 0.00017612 0 0)
(7.193e-06 3.76778e-05 9.85358e-25 0.000207138 6.60631e-24 6.25023e-42)
(9.04663e-06 4.4898e-05 0 0.000233837 0 0)
(1.07026e-05 5.09731e-05 0 0.000255035 0 0)
(1.21076e-05 5.5702e-05 -8.04934e-23 0.000269841 -4.52738e-22 2.36721e-38)
(1.32001e-05 5.88659e-05 8.43936e-23 0.00027738 4.58019e-22 2.40954e-38)
(1.40748e-05 6.06113e-05 6.60646e-25 0.000277104 3.4662e-24 1.33709e-42)
(1.46584e-05 6.06932e-05 4.15306e-23 0.000268177 2.09903e-22 4.96872e-39)
(1.50166e-05 5.91557e-05 -1.00469e-24 0.000249969 -4.69986e-24 1.18033e-41)
(1.52156e-05 5.61846e-05 -1.01009e-24 0.000223325 -4.39814e-24 1.3903e-41)
(1.53266e-05 5.19815e-05 -1.98222e-23 0.000189699 -8.19465e-23 1.16565e-39)
(1.54328e-05 4.6791e-05 -1.84963e-23 0.000151563 -6.69697e-23 9.19678e-40)
(1.56137e-05 4.08269e-05 -4.13282e-23 0.000112217 -1.22953e-22 3.93149e-39)
(1.59441e-05 3.42264e-05 4.11772e-23 7.53622e-05 9.01015e-23 3.93159e-39)
(1.64941e-05 2.7028e-05 -1.66253e-23 4.45221e-05 -2.27047e-23 4.93116e-40)
(1.73307e-05 1.91965e-05 -1.60598e-23 2.24365e-05 -9.03301e-24 3.24273e-40)
(1.85224e-05 1.06791e-05 7.26834e-25 1.0601e-05 -1.2836e-24 1.44273e-41)
(2.00955e-05 1.43344e-06 7.2396e-25 9.05098e-06 -1.85817e-24 1.24053e-41)
(2.20308e-05 -8.41219e-06 3.69212e-23 1.65835e-05 -5.15607e-23 1.09285e-39)
(2.42819e-05 -1.85906e-05 -5.81275e-25 3.09717e-05 1.02363e-24 2.03867e-43)
(2.67452e-05 -2.87065e-05 7.68371e-23 4.94851e-05 -1.52729e-22 2.42566e-39)
(2.92652e-05 -3.82795e-05 -7.97435e-23 6.9363e-05 1.74498e-22 2.38289e-39)
(3.16532e-05 -4.68093e-05 0 8.81753e-05 0 0)
(3.37156e-05 -5.38505e-05 0 0.000104032 0 0)
(3.52757e-05 -5.90677e-05 -1.19127e-24 0.000115689 2.86368e-24 3.25267e-43)
(3.61754e-05 -6.2236e-05 0 0.000122556 0 0)
(3.62511e-05 -6.32328e-05 0 0.000124765 0 0)
(3.56541e-05 -6.23768e-05 0 0.000122674 0 0)
(2.0168e-06 1.54439e-05 0 0.000126747 0 0)
(3.91726e-06 2.44976e-05 0 0.000161756 0 0)
(5.91453e-06 3.29496e-05 0 0.000192875 0 0)
(7.79233e-06 4.04242e-05 -9.9112e-25 0.000220223 -6.50857e-24 5.55702e-42)
(9.55445e-06 4.69978e-05 0 0.000242993 0 0)
(1.11465e-05 5.24978e-05 0 0.000260451 0 0)
(1.25096e-05 5.67197e-05 7.82763e-23 0.000271856 4.36692e-22 2.04102e-38)
(1.35936e-05 5.94802e-05 -8.28241e-23 0.000276433 -4.46639e-22 2.13796e-38)
(1.44939e-05 6.09363e-05 -6.34243e-25 0.000273798 -3.30982e-24 1.17776e-42)
(1.513e-05 6.08161e-05 0 0.000263021 0 0)
(1.55975e-05 5.92658e-05 0 0.000243933 0 0)
(1.5931e-05 5.64022e-05 -3.75047e-23 0.00021734 -1.69295e-22 3.54005e-39)
(1.61953e-05 5.24101e-05 3.6821e-23 0.00018466 1.51697e-22 3.56234e-39)
(1.64548e-05 4.74888e-05 0 0.000148156 0 0)
(1.67674e-05 4.18054e-05 -1.13609e-22 0.000110756 -3.3587e-22 2.91034e-38)
(1.71879e-05 3.54653e-05 1.13104e-22 7.56991e-05 2.47435e-22 2.90804e-38)
(1.77712e-05 2.85035e-05 0 4.60642e-05 0 0)
(1.85751e-05 2.08999e-05 3.07474e-23 2.42904e-05 1.73582e-23 1.45833e-39)
(1.96476e-05 1.26159e-05 -3.21437e-23 1.17959e-05 6.83479e-24 1.47291e-39)
(2.10331e-05 3.64795e-06 0 8.79642e-06 0 0)
(2.27423e-05 -5.89639e-06 0 1.44103e-05 0 0)
(2.47372e-05 -1.57942e-05 5.40504e-25 2.68392e-05 -9.2033e-25 1.79485e-43)
(2.69463e-05 -2.5709e-05 -6.80741e-23 4.37529e-05 1.34467e-22 2.21213e-39)
(2.92515e-05 -3.52278e-05 7.18447e-23 6.26861e-05 -1.57388e-22 2.25074e-39)
(3.14999e-05 -4.39108e-05 0 8.13675e-05 0 0)
(3.35244e-05 -5.13474e-05 0 9.79359e-05 0 0)
(3.51678e-05 -5.72096e-05 1.12239e-24 0.000111057 -2.6871e-24 2.88924e-43)
(3.62932e-05 -6.12676e-05 0 0.000119926 0 0)
(3.67529e-05 -6.33288e-05 0 0.000124266 0 0)
(3.64711e-05 -6.33734e-05 0 0.000124127 0 0)
(2.83472e-06 1.93813e-05 0 0.00014056 0 0)
(4.63026e-06 2.75681e-05 0 0.000172718 0 0)
(6.54078e-06 3.53768e-05 0 0.000200876 0 0)
(8.40929e-06 4.24915e-05 6.65295e-23 0.000225543 4.22371e-22 2.24654e-38)
(1.01864e-05 4.8782e-05 -7.38748e-23 0.00024593 -4.41889e-22 2.29989e-38)
(1.18046e-05 5.40241e-05 8.01139e-23 0.000261263 4.58334e-22 2.28179e-38)
(1.32166e-05 5.80341e-05 -8.44938e-23 0.000270789 -4.67541e-22 2.32492e-38)
(1.43889e-05 6.06635e-05 1.32356e-24 0.000273768 7.14352e-24 5.34258e-42)
(1.54073e-05 6.20366e-05 0 0.000269833 0 0)
(1.62139e-05 6.19327e-05 0 0.000258153 0 0)
(1.6896e-05 6.0495e-05 -1.25739e-24 0.000238787 -6.22396e-24 4.29272e-42)
(1.74736e-05 5.78068e-05 0 0.000212496 0 0)
(1.79988e-05 5.40301e-05 0 0.00018067 0 0)
(1.85126e-05 4.93234e-05 -2.69388e-25 0.00014543 -1.02652e-24 1.97834e-43)
(1.90465e-05 4.38155e-05 -1.8083e-22 0.000109465 -5.68146e-22 8.3143e-38)
(1.96306e-05 3.75869e-05 1.79652e-22 7.57219e-05 4.22765e-22 8.31417e-38)
(2.02993e-05 3.06654e-05 2.4483e-25 4.70008e-05 3.64941e-25 1.31197e-43)
(2.10985e-05 2.30447e-05 0 2.55419e-05 0 0)
(2.20828e-05 1.47172e-05 0 1.27035e-05 0 0)
(2.32989e-05 5.71855e-06 1.01814e-24 8.80524e-06 -7.98666e-25 1.27108e-42)
(2.47725e-05 -3.84462e-06 0 1.31329e-05 0 0)
(2.65005e-05 -1.37539e-05 0 2.41537e-05 0 0)
(2.84393e-05 -2.36988e-05 -1.12353e-24 3.98017e-05 2.1844e-24 6.90422e-43)
(3.05019e-05 -3.33036e-05 -7.22908e-23 5.78235e-05 1.53787e-22 2.21978e-39)
(3.25649e-05 -4.21679e-05 7.46818e-23 7.60837e-05 -1.70071e-22 2.17861e-39)
(3.44841e-05 -4.99126e-05 -7.60624e-23 9.2784e-05 1.76957e-22 1.66473e-39)
(3.61143e-05 -5.62243e-05 7.67242e-23 0.000106582 -1.83343e-22 1.62079e-39)
(3.733e-05 -6.08823e-05 0 0.000116607 0 0)
(3.80135e-05 -6.37294e-05 0 0.000122483 0 0)
(3.79469e-05 -6.46528e-05 0 0.000124333 0 0)
(3.67199e-06 2.31013e-05 0 0.000152905 0 0)
(5.40555e-06 3.06748e-05 -1.19034e-22 0.000182456 -8.34579e-22 1.05106e-37)
(7.33966e-06 3.81784e-05 7.03942e-23 0.000208133 4.50956e-22 2.78332e-38)
(9.26894e-06 4.50897e-05 1.56926e-22 0.000230412 9.42899e-22 1.08727e-37)
(1.11163e-05 5.11775e-05 -1.69567e-22 0.000248525 -9.71091e-22 1.06914e-37)
(1.28275e-05 5.62427e-05 8.85046e-23 0.000261748 4.89276e-22 2.59014e-38)
(1.43696e-05 6.01294e-05 0 0.000269384 0 0)
(1.57255e-05 6.27175e-05 2.85045e-24 0.000270772 1.50919e-23 2.26701e-41)
(1.69646e-05 6.40754e-05 0 0.00026553 0 0)
(1.80604e-05 6.40538e-05 0 0.000253013 0 0)
(1.90762e-05 6.27541e-05 4.35439e-23 0.0002334 2.17447e-22 5.18201e-39)
(2.00261e-05 6.02509e-05 -3.95191e-23 0.000207447 -1.89692e-22 4.61926e-39)
(2.09413e-05 5.66776e-05 0 0.000176501 0 0)
(2.18318e-05 5.2156e-05 2.69431e-25 0.000142545 1.0687e-24 2.18058e-43)
(2.26954e-05 4.67808e-05 -2.4568e-22 0.00010804 -8.06452e-22 1.67426e-37)
(2.35295e-05 4.06084e-05 2.43351e-22 7.56509e-05 6.06985e-22 1.67424e-37)
(2.43448e-05 3.36599e-05 -2.45846e-25 4.79079e-05 -3.95259e-25 1.4461e-43)
(2.51741e-05 2.59384e-05 0 2.6854e-05 0 0)
(2.60741e-05 1.74585e-05 -3.20424e-23 1.37732e-05 1.10287e-24 1.59561e-39)
(2.7107e-05 8.27595e-06 3.17409e-23 9.03875e-06 -2.28543e-23 1.39724e-39)
(2.83241e-05 -1.4788e-06 1.07877e-24 1.21225e-05 -1.31784e-24 1.20594e-42)
(2.97548e-05 -1.15865e-05 0 2.17349e-05 0 0)
(3.13886e-05 -2.17488e-05 -2.30282e-24 3.60693e-05 4.33986e-24 3.353e-42)
(3.31694e-05 -3.16121e-05 0 5.30926e-05 0 0)
(3.5001e-05 -4.08017e-05 7.66761e-23 7.08185e-05 -1.67031e-22 2.1526e-39)
(3.67591e-05 -4.89599e-05 -1.53595e-22 8.75174e-05 3.4811e-22 7.58196e-39)
(3.83112e-05 -5.57839e-05 1.53569e-22 0.000101839 -3.53952e-22 6.40082e-39)
(3.95417e-05 -6.10545e-05 7.56331e-23 0.000112847 -1.73041e-22 1.1524e-39)
(4.03284e-05 -6.46175e-05 -1.5271e-22 0.000120065 3.53592e-22 5.132e-39)
(4.03201e-05 -6.63363e-05 0 0.000123751 0 0)
(4.64255e-06 2.7031e-05 0 0.000164419 0 0)
(6.41738e-06 3.43024e-05 1.43944e-22 0.000191457 9.18343e-22 1.20969e-37)
(8.44312e-06 4.16172e-05 -1.59545e-22 0.000214675 -9.47091e-22 1.16927e-37)
(1.04812e-05 4.83556e-05 0 0.000234531 0 0)
(1.24596e-05 5.42858e-05 0 0.000250344 0 0)
(1.43429e-05 5.92404e-05 3.02104e-24 0.000261444 1.60569e-23 2.65582e-41)
(1.6109e-05 6.30728e-05 0 0.000267195 0 0)
(1.77606e-05 6.56873e-05 -3.03305e-24 0.000267011 -1.57386e-23 2.48988e-41)
(1.93462e-05 6.70857e-05 4.71329e-23 0.00026049 2.42574e-22 5.77194e-39)
(2.08741e-05 6.71912e-05 -4.59926e-23 0.00024721 -2.35427e-22 5.85493e-39)
(2.23776e-05 6.60546e-05 -4.39231e-23 0.00022742 -2.20371e-22 5.30684e-39)
(2.38664e-05 6.37495e-05 4.06818e-23 0.000201882 1.98247e-22 5.03051e-39)
(2.53399e-05 6.03758e-05 1.17914e-24 0.000171901 5.36237e-24 4.23669e-42)
(2.67674e-05 5.60196e-05 -5.5227e-25 0.000139319 -2.24922e-24 9.51432e-43)
(2.8102e-05 5.07434e-05 -3.09496e-22 0.000106367 -1.05161e-21 2.84219e-37)
(2.92993e-05 4.45811e-05 3.05552e-22 7.54345e-05 7.99732e-22 2.84215e-37)
(3.03381e-05 3.75444e-05 5.01055e-25 4.87803e-05 8.55378e-25 6.46544e-43)
(3.12353e-05 2.96435e-05 -1.01235e-24 2.82465e-05 -8.37362e-25 2.22901e-42)
(3.20507e-05 2.09118e-05 3.29562e-23 1.50284e-05 1.64001e-24 1.79334e-39)
(3.28684e-05 1.14285e-05 -3.38268e-23 9.54205e-06 2.14435e-23 1.67161e-39)
(3.37756e-05 1.34429e-06 -3.67065e-23 1.14186e-05 4.08596e-23 1.35493e-39)
(3.48408e-05 -9.11333e-06 3.78305e-23 1.9602e-05 -5.79109e-23 1.25344e-39)
(3.60933e-05 -1.96489e-05 2.43554e-24 3.25427e-05 -4.33545e-24 3.68259e-42)
(3.75131e-05 -2.99203e-05 0 4.84373e-05 0 0)
(3.90328e-05 -3.95693e-05 -2.53038e-24 6.54668e-05 5.32346e-24 2.67326e-42)
(4.05489e-05 -4.82533e-05 0 8.19915e-05 0 0)
(4.19449e-05 -5.568e-05 0 9.66724e-05 0 0)
(4.31101e-05 -6.16275e-05 -1.64119e-22 0.000108528 3.63007e-22 6.01779e-39)
(4.39135e-05 -6.59347e-05 1.59148e-22 0.00011697 -3.53397e-22 5.49883e-39)
(4.38068e-05 -6.84395e-05 0 0.00012241 0 0)
(5.86962e-06 3.14318e-05 1.33691e-22 0.000174864 8.84436e-22 1.19358e-37)
(7.78424e-06 3.85919e-05 -2.5173e-22 0.000199244 -1.4569e-21 2.93907e-37)
(9.96313e-06 4.57678e-05 9.1686e-23 0.000219977 5.01586e-22 3.16562e-38)
(1.21766e-05 5.23777e-05 0 0.000237423 0 0)
(1.43702e-05 5.82132e-05 1.02789e-22 0.000250988 5.29129e-22 2.96384e-38)
(1.65256e-05 6.31216e-05 -1.0358e-22 0.000260029 -5.2557e-22 2.85166e-38)
(1.86341e-05 6.6962e-05 1.02853e-22 0.000263954 5.17892e-22 2.6064e-38)
(2.07208e-05 6.96564e-05 -1.06323e-22 0.000262259 -5.35311e-22 2.83447e-38)
(2.28163e-05 7.11507e-05 0 0.000254551 0 0)
(2.49557e-05 7.1418e-05 -3.05089e-24 0.000240613 -1.53218e-23 2.38553e-41)
(2.71512e-05 7.04784e-05 4.50046e-23 0.000220751 2.23481e-22 5.43789e-39)
(2.93913e-05 6.83854e-05 -2.17447e-23 0.000195733 -1.0659e-22 1.50851e-39)
(3.16353e-05 6.52075e-05 -2.82842e-24 0.000166816 -1.393e-23 3.81067e-41)
(3.38007e-05 6.09971e-05 -1.7934e-23 0.0001357 -7.40993e-23 1.06549e-39)
(3.57826e-05 5.57846e-05 -3.80899e-22 0.000104395 -1.30484e-21 4.3649e-37)
(3.74826e-05 4.95812e-05 3.75476e-22 7.50186e-05 1.00227e-21 4.36444e-37)
(3.88387e-05 4.23898e-05 -1.71227e-23 4.95658e-05 -3.00382e-23 7.26454e-40)
(3.98495e-05 3.42275e-05 2.41626e-24 2.96773e-05 2.15606e-24 2.49344e-41)
(4.05784e-05 2.51452e-05 -1.7009e-23 1.64503e-05 -2.57028e-24 4.26611e-40)
(4.11372e-05 1.52467e-05 3.67388e-23 1.03264e-05 -1.97128e-23 1.98378e-39)
(4.16563e-05 4.70364e-06 2.36139e-24 1.10716e-05 -2.42694e-24 6.10729e-42)
(4.22542e-05 -6.24305e-06 0 1.7844e-05 0 0)
(4.301e-05 -1.72936e-05 -8.13742e-23 2.93398e-05 1.34593e-22 4.04072e-39)
(4.39476e-05 -2.81099e-05 8.83337e-23 4.39868e-05 -1.65347e-22 4.20588e-39)
(4.50342e-05 -3.83425e-05 -8.87266e-23 6.0146e-05 1.74661e-22 3.03376e-39)
(4.61906e-05 -4.76592e-05 8.91164e-23 7.62866e-05 -1.84059e-22 2.77487e-39)
(4.73162e-05 -5.57723e-05 5.51829e-24 9.11074e-05 -1.15854e-23 8.60436e-42)
(4.8312e-05 -6.24623e-05 8.83264e-23 0.000103606 -1.85507e-22 1.70789e-39)
(4.90358e-05 -6.75626e-05 -2.57226e-22 0.000113115 5.41844e-22 1.3162e-38)
(4.86736e-05 -7.08984e-05 1.79022e-22 0.0001202 -3.82855e-22 6.21206e-39)
(7.48289e-06 3.64638e-05 -7.87694e-23 0.00018393 -4.57905e-22 3.02813e-38)
(9.63922e-06 4.36384e-05 1.02912e-22 0.000205549 5.38304e-22 3.86597e-38)
(1.20503e-05 5.07311e-05 1.11618e-22 0.000223823 5.60107e-22 3.74116e-38)
(1.45309e-05 5.72711e-05 -1.19751e-22 0.00023893 -5.84817e-22 3.84235e-38)
(1.70509e-05 6.30753e-05 1.15876e-22 0.000250304 5.58202e-22 3.21191e-38)
(1.9609e-05 6.79955e-05 -1.26654e-22 0.000257354 -6.07004e-22 3.71284e-38)
(2.22154e-05 7.18992e-05 -3.75458e-24 0.000259522 -1.79503e-23 3.00936e-41)
(2.4912e-05 7.47091e-05 0 0.000256377 0 0)
(2.77313e-05 7.63534e-05 5.52769e-23 0.000247594 2.67152e-22 6.84128e-39)
(3.07136e-05 7.68147e-05 2.35128e-24 0.000233111 1.00236e-23 3.74357e-42)
(3.38541e-05 7.60957e-05 2.19775e-24 0.00021329 8.67247e-24 2.58427e-42)
(3.71104e-05 7.42282e-05 -4.75873e-23 0.000188914 -2.23951e-22 6.38605e-39)
(4.03862e-05 7.12436e-05 -1.97225e-23 0.000161175 -8.6329e-23 1.08391e-39)
(4.35321e-05 6.71597e-05 2.99093e-23 0.000131632 1.18971e-22 2.69802e-39)
(4.63715e-05 6.19769e-05 -4.81974e-22 0.000102074 -1.59592e-21 6.51353e-37)
(4.87399e-05 5.56849e-05 4.56975e-22 7.436e-05 1.18944e-21 6.01654e-37)
(5.05265e-05 4.82788e-05 2.73277e-23 5.0229e-05 4.75037e-23 1.77685e-39)
(5.17063e-05 3.97807e-05 -2.09724e-23 3.11202e-05 -1.94867e-23 9.41671e-40)
(5.2348e-05 3.02583e-05 -3.77648e-23 1.80254e-05 -7.68122e-24 2.22855e-39)
(5.25953e-05 1.98394e-05 -1.7287e-24 1.13937e-05 -3.9514e-25 1.81822e-42)
(5.26303e-05 8.71867e-06 -1.77181e-24 1.11042e-05 1.54882e-25 1.72975e-42)
(5.26324e-05 -2.84533e-06 4.32697e-23 1.65075e-05 -5.53272e-23 1.58059e-39)
(5.27418e-05 -1.45429e-05 0 2.65309e-05 0 0)
(5.30366e-05 -2.60333e-05 2.79708e-24 3.98295e-05 -4.8415e-24 4.19117e-42)
(5.35265e-05 -3.69698e-05 -8.6995e-23 5.49524e-05 1.5876e-22 2.8207e-39)
(5.4164e-05 -4.70267e-05 9.63031e-23 7.04927e-05 -1.85481e-22 3.14276e-39)
(5.48672e-05 -5.59181e-05 -9.5716e-23 8.52201e-05 1.86568e-22 2.27615e-39)
(5.55516e-05 -6.34199e-05 9.13239e-23 9.81216e-05 -1.81268e-22 1.95562e-39)
(5.60676e-05 -6.93688e-05 8.83999e-23 0.000108485 -1.75408e-22 1.43337e-39)
(5.52698e-05 -7.36156e-05 -1.00576e-22 0.000117041 2.03088e-22 1.84444e-39)
(9.64585e-06 4.22634e-05 0 0.000191371 0 0)
(1.21608e-05 4.95396e-05 1.06428e-22 0.000210214 5.01471e-22 3.16356e-38)
(1.49065e-05 5.66037e-05 -1.38156e-22 0.000226096 -6.32068e-22 4.70043e-38)
(1.77767e-05 6.3133e-05 1.36261e-22 0.000238931 6.12392e-22 4.01274e-38)
(2.07681e-05 6.89596e-05 -1.33251e-22 0.000248164 -5.95207e-22 3.65082e-38)
(2.39004e-05 7.39406e-05 1.24725e-22 0.000253266 5.57183e-22 2.98311e-38)
(2.72067e-05 7.795e-05 -1.25467e-22 0.000253735 -5.64308e-22 3.06551e-38)
(3.07433e-05 8.09062e-05 -8.15068e-24 0.000249205 -3.68522e-23 1.27138e-40)
(3.45547e-05 8.27384e-05 -3.91269e-24 0.000239459 -1.77981e-23 3.02858e-41)
(3.86722e-05 8.34188e-05 -3.70471e-24 0.000224551 -1.68551e-23 2.85671e-41)
(4.307e-05 8.29374e-05 -3.43209e-24 0.000204903 -1.5494e-23 2.66957e-41)
(4.7661e-05 8.12998e-05 1.60045e-24 0.000181301 6.99027e-24 6.15448e-42)
(5.228e-05 7.85044e-05 -2.53532e-23 0.000154874 -1.02614e-22 1.5409e-39)
(5.66941e-05 7.45343e-05 1.16144e-23 0.00012703 4.35453e-23 3.80904e-40)
(6.0639e-05 6.936e-05 -5.92345e-22 9.93434e-05 -1.79681e-21 8.21126e-37)
(6.38705e-05 6.29498e-05 6.07248e-22 7.34178e-05 1.45724e-21 8.81922e-37)
(6.62201e-05 5.52893e-05 1.02593e-23 5.07429e-05 1.62575e-23 1.80155e-40)
(6.76348e-05 4.64035e-05 -1.87041e-23 3.25595e-05 -1.70573e-23 6.39571e-40)
(6.81894e-05 3.63745e-05 1.34908e-24 1.97468e-05 3.39917e-25 2.59186e-42)
(6.8065e-05 2.53518e-05 5.57198e-24 1.27463e-05 -1.68275e-24 3.5336e-41)
(6.75038e-05 1.3554e-05 2.86418e-24 1.15298e-05 -2.15346e-24 7.53614e-42)
(6.67571e-05 1.26039e-06 2.95694e-24 1.56195e-05 -3.24855e-24 6.38644e-42)
(6.60382e-05 -1.12043e-05 6.08997e-24 2.41584e-05 -8.26854e-24 2.1589e-41)
(6.54911e-05 -2.34907e-05 -1.06124e-22 3.60223e-05 1.61951e-22 4.87138e-39)
(6.51798e-05 -3.52507e-05 1.10334e-22 4.99523e-05 -1.85475e-22 4.72055e-39)
(6.50934e-05 -4.61575e-05 -1.03533e-22 6.46855e-05 1.80577e-22 3.0426e-39)
(6.51788e-05 -5.59271e-05 9.96596e-23 7.90781e-05 -1.80839e-22 2.61492e-39)
(6.53708e-05 -6.43275e-05 -9.14541e-23 9.21319e-05 1.67172e-22 1.63001e-39)
(6.55084e-05 -7.11908e-05 1.12304e-22 0.000103103 -2.07551e-22 2.33954e-39)
(6.40461e-05 -7.64522e-05 0 0.000112906 0 0)
(1.25701e-05 4.89401e-05 0 0.000196997 0 0)
(1.55887e-05 5.63776e-05 8.4602e-24 0.000213077 3.57263e-23 1.55468e-40)
(1.88042e-05 6.34637e-05 -1.24493e-22 0.000226643 -5.1638e-22 2.97204e-38)
(2.2223e-05 7.00264e-05 1.26061e-24 0.000237245 5.22279e-24 1.75402e-41)
(2.58743e-05 7.59127e-05 1.53274e-22 0.000244378 6.27907e-22 3.97134e-38)
(2.9804e-05 8.09874e-05 9.54045e-24 0.000247566 3.9267e-23 1.48809e-40)
(3.40696e-05 8.51294e-05 9.54783e-24 0.000246391 3.94842e-23 1.44413e-40)
(3.87427e-05 8.82529e-05 -6.42694e-23 0.000240558 -2.67103e-22 6.55786e-39)
(4.38784e-05 9.02904e-05 7.61906e-23 0.000229964 3.19048e-22 9.89691e-39)
(4.94924e-05 9.12022e-05 -5.09441e-26 0.000214767 -1.4033e-25 3.40455e-46)
(5.5527e-05 9.09644e-05 -3.17405e-23 0.000195443 -1.28279e-22 1.79023e-39)
(6.18342e-05 8.95571e-05 3.04618e-23 0.000172774 1.19141e-22 1.81178e-39)
(6.8164e-05 8.69485e-05 -1.23606e-23 0.000147813 -4.40274e-23 2.84252e-40)
(7.41823e-05 8.30907e-05 1.37016e-23 0.000121817 4.41161e-23 3.76421e-40)
(7.95198e-05 7.79248e-05 -7.96073e-22 9.61446e-05 -2.10276e-21 1.12354e-36)
(8.38385e-05 7.13963e-05 7.90945e-22 7.21498e-05 1.66026e-21 1.12354e-36)
(8.69021e-05 6.34775e-05 1.25712e-23 5.108e-05 1.80643e-23 2.28912e-40)
(8.86258e-05 5.41907e-05 -1.44092e-23 3.39789e-05 -1.22054e-23 2.85752e-40)
(8.9092e-05 4.36267e-05 2.38831e-23 2.16082e-05 6.95966e-24 5.94376e-40)
(8.85248e-05 3.19527e-05 -3.29758e-23 1.43879e-05 6.66593e-24 1.03369e-39)
(8.72364e-05 1.94095e-05 -3.75528e-26 1.23636e-05 5.17056e-27 3.3277e-46)
(8.55622e-05 6.29898e-06 5.40201e-23 1.52089e-05 -4.84412e-23 1.67421e-39)
(8.38014e-05 -7.03505e-06 -6.33558e-23 2.22662e-05 7.42118e-23 2.05749e-39)
(8.21766e-05 -2.02294e-05 -7.02569e-24 3.26244e-05 9.47322e-24 2.01277e-41)
(8.08163e-05 -3.29269e-05 -7.24694e-24 4.52166e-05 1.06722e-23 1.67518e-41)
(7.97558e-05 -4.47957e-05 1.15036e-22 5.8942e-05 -1.79794e-22 3.38245e-39)
(7.89796e-05 -5.55471e-05 -1.97839e-24 7.27494e-05 5.07751e-24 1.96148e-41)
(7.84526e-05 -6.49436e-05 -1.32104e-22 8.56907e-05 2.21686e-22 3.44908e-39)
(7.79996e-05 -7.28078e-05 0 9.70053e-05 0 0)
(7.55875e-05 -7.92155e-05 0 0.000107788 0 0)
(1.6536e-05 5.65758e-05 0 0.000200615 0 0)
(2.02432e-05 6.42055e-05 -1.69302e-22 0.000213954 -6.38177e-22 4.79502e-38)
(2.41021e-05 7.13412e-05 1.29769e-24 0.00022525 4.62564e-24 1.6228e-41)
(2.82744e-05 7.79583e-05 1.40275e-24 0.000233656 5.37809e-24 1.94889e-41)
(3.28306e-05 8.3924e-05 3.4392e-22 0.000238717 1.27601e-21 1.58762e-37)
(3.78442e-05 8.91058e-05 -1.79269e-22 0.00024003 -6.683e-22 4.25358e-38)
(4.33975e-05 9.33845e-05 -1.09788e-23 0.000237272 -4.11264e-23 1.57756e-40)
(4.95785e-05 9.66742e-05 0 0.000230237 0 0)
(5.64462e-05 9.89104e-05 7.77424e-23 0.000218929 2.88652e-22 7.86837e-39)
(6.39947e-05 0.000100046 -7.60949e-23 0.000203603 -2.79724e-22 8.05725e-39)
(7.21199e-05 0.000100044 3.80932e-23 0.000184777 1.33957e-22 1.96869e-39)
(8.05955e-05 9.88635e-05 -7.04954e-25 0.000163222 -4.00469e-24 4.61894e-42)
(8.90666e-05 9.64477e-05 -3.5539e-23 0.000139905 -1.09063e-22 1.82918e-39)
(9.70784e-05 9.2721e-05 1.06325e-24 0.000115924 2.83669e-24 1.53424e-42)
(0.000104137 8.75965e-05 -1.07875e-21 9.24233e-05 -2.37692e-21 1.4381e-36)
(0.000109797 8.09938e-05 1.07788e-21 7.05156e-05 1.89484e-21 1.4394e-36)
(0.000113742 7.28649e-05 -9.94253e-25 5.12114e-05 -1.23135e-24 1.05026e-42)
(0.000115854 6.32203e-05 -3.13755e-23 3.53606e-05 -2.34354e-23 8.68439e-40)
(0.000116224 5.21497e-05 6.43944e-25 2.36027e-05 2.25083e-26 4.6885e-42)
(0.000115127 3.98297e-05 4.00927e-23 1.63236e-05 -4.21911e-24 1.13314e-39)
(0.000112957 2.6519e-05 -6.73485e-23 1.36246e-05 2.8937e-23 2.45657e-39)
(0.000110146 1.25417e-05 6.51256e-23 1.53109e-05 -4.81238e-23 2.12687e-39)
(0.000107094 -1.73607e-06 0 2.09076e-05 0 0)
(0.000104116 -1.59322e-05 8.22241e-24 2.9706e-05 -9.29492e-24 2.19877e-41)
(0.000101416 -2.96725e-05 -1.29636e-22 4.08338e-05 1.63627e-22 4.43008e-39)
(9.90861e-05 -4.26143e-05 2.70351e-22 5.33547e-05 -3.71896e-22 1.70392e-38)
(9.71583e-05 -5.44575e-05 -2.27083e-24 6.63291e-05 5.27243e-24 2.16948e-41)
(9.56353e-05 -6.4953e-05 5.78298e-24 7.88796e-05 -7.47322e-24 3.61244e-42)
(9.43287e-05 -7.39163e-05 -1.29591e-22 9.02584e-05 1.9891e-22 2.50717e-39)
(9.06218e-05 -8.16316e-05 0 0.000101712 0 0)
(2.19102e-05 6.52021e-05 -2.28725e-23 0.000202009 -7.90362e-23 7.67764e-40)
(2.65414e-05 7.30152e-05 0 0.000212628 0 0)
(3.12698e-05 8.0205e-05 -1.2358e-23 0.000221673 -4.1169e-23 1.83235e-40)
(3.64605e-05 8.68756e-05 1.91856e-22 0.000227907 6.35334e-22 4.0126e-38)
(4.22325e-05 9.29097e-05 -2.10351e-22 0.000230934 -6.97865e-22 4.72677e-38)
(4.86886e-05 9.81764e-05 2.09211e-22 0.00023043 6.93642e-22 4.42033e-38)
(5.59365e-05 0.000102562 -2.10533e-22 0.000226168 -6.98837e-22 4.54538e-38)
(6.40797e-05 0.000105984 -1.02282e-22 0.000218053 -3.35731e-22 1.03453e-38)
(7.31733e-05 0.000108384 2.1404e-22 0.000206194 6.9235e-22 4.61536e-38)
(8.31798e-05 0.000109712 4.38719e-24 0.000190926 1.11655e-23 6.05942e-42)
(9.39317e-05 0.000109924 -8.99325e-23 0.000172802 -2.69718e-22 8.33413e-39)
(0.000105104 0.000108967 4.55439e-23 0.000152564 1.25237e-22 1.99559e-39)
(0.000116216 0.000106765 -2.30774e-23 0.000131084 -5.88793e-23 5.57312e-40)
(0.000126667 0.000103221 -3.41156e-23 0.000109296 -7.41765e-23 1.07269e-39)
(0.00013582 9.8219e-05 -1.47381e-21 8.81359e-05 -2.63049e-21 1.77345e-36)
(0.000143101 9.1648e-05 1.49977e-21 6.84792e-05 2.14562e-21 1.82272e-36)
(0.00014811 8.34288e-05 -2.93856e-23 5.11091e-05 -3.0117e-23 5.95433e-40)
(0.000150688 7.3546e-05 -1.95368e-23 3.66858e-05 -1.25142e-23 2.04218e-40)
(0.000150941 6.20734e-05 4.04909e-23 2.57229e-05 1.20166e-23 9.40003e-40)
(0.000149204 4.91848e-05 -8.81783e-23 1.85605e-05 1.39517e-24 3.5427e-39)
(0.000145967 3.51487e-05 -3.00212e-24 1.53374e-05 -5.91559e-25 2.64808e-42)
(0.000141774 2.03085e-05 1.45962e-22 1.59703e-05 -8.02374e-23 7.5832e-39)
(0.00013714 5.05458e-06 -7.81132e-23 2.01493e-05 5.99746e-23 1.95903e-39)
(0.000132487 -1.0206e-05 -1.51413e-22 2.73566e-05 1.38498e-22 5.72954e-39)
(0.00012811 -2.50766e-05 1.53466e-22 3.69132e-05 -1.64657e-22 5.57188e-39)
(0.00012417 -3.91951e-05 -1.49013e-22 4.80472e-05 1.73066e-22 4.0455e-39)
(0.000120753 -5.22427e-05 1.59263e-22 5.99532e-05 -2.0046e-22 4.39785e-39)
(0.000117911 -6.39489e-05 -9.06289e-24 7.18305e-05 1.19281e-23 1.1676e-41)
(0.000115441 -7.4121e-05 0 8.29701e-05 0 0)
(0.000110035 -8.33305e-05 1.66823e-23 9.47442e-05 -2.44551e-23 3.34102e-41)
(2.91697e-05 7.47809e-05 2.73614e-23 0.00020093 8.26614e-23 8.30314e-40)
(3.50251e-05 8.27253e-05 -2.42045e-22 0.000208849 -7.12667e-22 5.68427e-38)
(4.09105e-05 8.99389e-05 2.37874e-22 0.000215662 7.00024e-22 5.22527e-38)