/*--------------------------------*- C++ -*----------------------------------*\
  =========                 |
  \\      /  F ield         | OpenFOAM: The Open Source CFD Toolbox
   \\    /   O peration     | Website:  https://openfoam.org
    \\  /    A nd           | Version:  12
     \\/     M anipulation  |
\*---------------------------------------------------------------------------*/
FoamFile
{
    format      ascii;
    class       volScalarField;
    location    "240";
    object      p;
}
// * * * * * * * * * * * * * * * * * * * * * * * * * * * * * * * * * * * * * //

dimensions      [0 2 -2 0 0 0 0];

internalField   nonuniform List<scalar> 
6750
(
0.0216015
0.0215795
0.0215501
0.0213866
0.0203581
0.0231199
0.0230834
0.022956
0.0226902
0.0223308
0.0249127
0.0248535
0.0247229
0.0245249
0.0243719
0.0267933
0.0266994
0.0265751
0.0264347
0.0263579
0.0286604
0.0285225
0.0283884
0.0282759
0.0282371
0.0304342
0.0302479
0.030093
0.0299903
0.029969
0.0320664
0.0318303
0.0316507
0.0315509
0.031538
0.0335276
0.0332424
0.0330382
0.0329392
0.0329314
0.0347993
0.0344676
0.0342407
0.0341424
0.0341383
0.0358713
0.035497
0.0352505
0.0351536
0.0351522
0.0367401
0.0363286
0.0360665
0.0359715
0.035972
0.0374089
0.0369666
0.0366933
0.0366006
0.0366021
0.0378871
0.0374201
0.0371406
0.0370503
0.0370521
0.0381889
0.0377029
0.0374236
0.0373345
0.0373356
0.0383272
0.0378356
0.0375616
0.03747
0.037469
0.0383272
0.0378356
0.0375616
0.0374701
0.037469
0.0381889
0.037703
0.0374237
0.0373346
0.0373357
0.0378872
0.0374202
0.0371407
0.0370504
0.0370522
0.0374091
0.0369667
0.0366934
0.0366007
0.0366022
0.0367403
0.0363288
0.0360667
0.0359717
0.0359721
0.0358715
0.0354972
0.0352508
0.0351538
0.0351524
0.0347996
0.0344679
0.034241
0.0341427
0.0341386
0.0335279
0.0332427
0.0330385
0.0329395
0.0329317
0.0320668
0.0318306
0.0316511
0.0315513
0.0315384
0.0304347
0.0302483
0.0300934
0.0299908
0.0299694
0.0286609
0.0285229
0.0283889
0.0282763
0.0282376
0.0267938
0.0266999
0.0265756
0.0264353
0.0263584
0.0249133
0.0248541
0.0247235
0.0245254
0.0243724
0.0231205
0.0230841
0.0229567
0.0226908
0.0223314
0.0216023
0.0215802
0.0215508
0.0213873
0.0203588
0.0141793
0.014772
0.0162402
0.0173251
0.0181115
0.0187364
0.0192261
0.019592
0.0198619
0.0200463
0.0201082
0.0201218
0.0200592
0.0199163
0.0196919
0.0193823
0.0189846
0.0185016
0.0179367
0.0172898
0.0165554
0.0158382
0.015083
0.0143051
0.0135243
0.0127537
0.0120027
0.0112859
0.0106135
0.00993057
0.018089
0.0188846
0.0196843
0.0200851
0.0203139
0.0204552
0.020511
0.0204905
0.0204225
0.0203043
0.0200945
0.0199074
0.0197019
0.019481
0.0192432
0.0189795
0.0186775
0.018326
0.0179144
0.0174397
0.0169201
0.0162866
0.0156219
0.014917
0.01418
0.0134223
0.0126519
0.0118833
0.0111567
0.010452
0.0205695
0.020753
0.0210679
0.0212218
0.0212975
0.0213056
0.0212342
0.0210939
0.0209062
0.0206353
0.0202856
0.0199504
0.0195871
0.0192068
0.0188156
0.0184132
0.0179962
0.0175596
0.0170977
0.0166056
0.0160823
0.0155273
0.0149468
0.0143404
0.0137129
0.0130701
0.0124132
0.0117528
0.0111761
0.0107591
0.0220123
0.0217881
0.0219169
0.0219997
0.0220088
0.0219414
0.0217925
0.0215789
0.0213096
0.0209153
0.0204691
0.0200096
0.019508
0.0189809
0.0184402
0.0178936
0.0173466
0.0168021
0.016261
0.015722
0.0151833
0.0146488
0.0141152
0.0135794
0.0130414
0.0125013
0.0119522
0.0113965
0.0109635
0.0108815
0.0231028
0.0227307
0.0227773
0.0227893
0.022715
0.0225601
0.0223252
0.0220257
0.0216593
0.0211495
0.0206071
0.0200274
0.0194004
0.0187459
0.0180793
0.0174139
0.0167608
0.0161282
0.0155213
0.0149417
0.0143889
0.0138621
0.013358
0.0128716
0.0123992
0.0119372
0.0114717
0.0109961
0.0106715
0.0108938
0.0240499
0.0236387
0.0236205
0.0235524
0.0233921
0.0231508
0.0228295
0.0224404
0.0219668
0.0213516
0.0207093
0.0200139
0.01927
0.0184994
0.0177208
0.0169512
0.0162059
0.0154965
0.0148311
0.0142132
0.0136428
0.0131173
0.0126323
0.0121815
0.0117587
0.0113576
0.0109594
0.0105498
0.0103157
0.0108107
0.0248878
0.0244828
0.0244064
0.0242616
0.0240224
0.0237003
0.0232973
0.0228217
0.0222355
0.0215266
0.0207841
0.0199788
0.0191251
0.0182463
0.0173639
0.0164982
0.0156676
0.0148864
0.0141647
0.0135075
0.0129151
0.0123846
0.0119101
0.0114842
0.0110991
0.0107464
0.0104031
0.0100497
0.00989555
0.0106324
0.025637
0.025268
0.0251412
0.0249247
0.0246114
0.0242115
0.0237305
0.0231705
0.0224712
0.0216785
0.020836
0.0199257
0.0189679
0.0179873
0.0170077
0.0160521
0.0151413
0.0142919
0.0135155
0.0128181
0.0122005
0.0116594
0.0111883
0.0107785
0.0104212
0.0101063
0.00980693
0.00950048
0.00941739
0.0103622
0.0263194
0.026008
0.025837
0.0255517
0.0251664
0.0246915
0.024135
0.023486
0.0226825
0.0218087
0.0208672
0.0198561
0.0187991
0.0177219
0.0166503
0.0156098
0.014623
0.0137083
0.0128785
0.0121404
0.0114951
0.0109392
0.0104656
0.0100647
0.00972691
0.00944059
0.00917568
0.00890795
0.00888785
0.0100063
0.0269521
0.0267129
0.0265022
0.0261495
0.025694
0.0251476
0.024515
0.0237691
0.0228758
0.0219175
0.0208796
0.0197715
0.0186191
0.0174492
0.0162898
0.015168
0.0141083
0.0131304
0.012248
0.0114685
0.0107935
0.0102192
0.00973811
0.00934016
0.00901493
0.00874954
0.00851097
0.00827493
0.00831105
0.00957064
0.0275473
0.0273903
0.0271436
0.0267239
0.0261986
0.0255827
0.0248737
0.0240269
0.0230541
0.0220083
0.0208758
0.0196735
0.0184283
0.0171687
0.0159241
0.0147236
0.0135929
0.0125528
0.011618
0.0107964
0.0100895
0.00949372
0.00900104
0.00860094
0.00828243
0.00803145
0.00781232
0.00760198
0.00768865
0.0090604
0.0281154
0.0280477
0.0277679
0.0272808
0.0266856
0.0260023
0.0252134
0.0242672
0.0232194
0.022084
0.0208581
0.0195632
0.018227
0.0168792
0.0155512
0.0142733
0.0130725
0.0119706
0.010983
0.0101179
0.00937715
0.00875689
0.00824888
0.00784219
0.00752536
0.00728318
0.00707758
0.00688783
0.00702021
0.00847921
0.028666
0.0286923
0.0283821
0.027828
0.0271641
0.0264092
0.025533
0.0244997
0.0233733
0.022147
0.0208283
0.0194414
0.0180148
0.0165797
0.0151688
0.0138138
0.0125429
0.0113788
0.0103372
0.009427
0.00865002
0.00800236
0.0074755
0.0070582
0.00673856
0.00650023
0.00630297
0.00612939
0.00630328
0.00782892
0.0292088
0.0293308
0.0289929
0.0283715
0.0276387
0.0268104
0.0258401
0.0247285
0.023518
0.0221996
0.0207881
0.019309
0.0177916
0.0162688
0.0147745
0.0133418
0.0119998
0.0107719
0.00967472
0.00871717
0.00790133
0.00722317
0.00667398
0.00624222
0.00591561
0.0056766
0.00548302
0.00532166
0.00553338
0.00710924
0.0297512
0.0299725
0.0296086
0.0289192
0.0281169
0.0272101
0.026144
0.0249564
0.0236569
0.0222448
0.0207391
0.0191662
0.0175567
0.0159446
0.0143654
0.0128532
0.0114382
0.0101445
0.0089891
0.00798143
0.00712362
0.0064116
0.00583645
0.00538639
0.00504876
0.00480479
0.00461052
0.00445773
0.00470401
0.00631746
0.0303005
0.0306288
0.0302414
0.0294836
0.0286046
0.0276086
0.0264559
0.0251866
0.0237936
0.0222852
0.0206827
0.0190134
0.017309
0.0156051
0.0139383
0.0123439
0.0108528
0.0094901
0.00827326
0.00721199
0.00630857
0.00555889
0.00495386
0.00448149
0.00412875
0.00387555
0.00367635
0.0035286
0.00380642
0.00544821
0.0308668
0.0313122
0.0309028
0.0300733
0.0291112
0.0280163
0.0267826
0.0254226
0.0239316
0.0223232
0.02062
0.0188503
0.0170472
0.0152476
0.0134893
0.0118086
0.0102375
0.00880163
0.00751913
0.00639999
0.00544665
0.00465496
0.00401569
0.00351666
0.00314445
0.00287763
0.00266916
0.00252286
0.00282939
0.00449309
0.0314668
0.032036
0.0316063
0.0306957
0.0296406
0.0284486
0.0271288
0.0256699
0.024075
0.0223612
0.020552
0.0186765
0.0167693
0.0148686
0.0130134
0.0112412
0.00958479
0.00807063
0.00671728
0.00553511
0.00452673
0.00368798
0.0030095
0.00247896
0.00208253
0.00179732
0.00157498
0.0014263
0.00175872
0.00344014
0.0321243
0.0328103
0.0323628
0.0313653
0.0302027
0.0289169
0.0274993
0.0259334
0.024228
0.0224017
0.0204791
0.0184906
0.0164723
0.0144635
0.0125047
0.0106342
0.00888592
0.00728694
0.00585639
0.00460498
0.00353549
0.00264377
0.00192035
0.00135276
0.00092672
0.000617844
0.000376536
0.000221207
0.00057658
0.00227323
0.0328582
0.0336545
0.03319
0.0320947
0.0308152
0.0294302
0.027903
0.0262206
0.0243953
0.0224471
0.0204016
0.0182908
0.0161521
0.0140264
0.0119552
0.00997808
0.00812971
0.00643798
0.00492254
0.00359445
0.00245665
0.00150499
0.000729932
0.000118844
-0.000342994
-0.000681591
-0.000947668
-0.00111459
-0.00073957
0.000970905
0.0336941
0.0346019
0.0341091
0.032896
0.031501
0.0300017
0.0283511
0.0265398
0.0245821
0.0224995
0.0203188
0.0180737
0.015803
0.0135491
0.0113547
0.00926041
0.00730194
0.00550781
0.0038982
0.0024845
0.0012698
0.000249967
-0.000584646
-0.0012468
-0.00175172
-0.00212711
-0.00242475
-0.00260915
-0.00221846
-0.000495076
0.034673
0.0356741
0.0351403
0.0338042
0.0322817
0.0306476
0.0288564
0.0268999
0.0247936
0.0225602
0.0202286
0.0178338
0.0154164
0.0130201
0.010689
0.00846476
0.0063839
0.00447565
0.00276066
0.00125063
-5.12254e-05
-0.00114907
-0.00205264
-0.00277487
-0.00333154
-0.00375216
-0.00408948
-0.00429856
-0.00389729
-0.00216217
0.0358413
0.0369161
0.0363241
0.0348565
0.0331811
0.0313885
0.0294349
0.0273116
0.0250351
0.02263
0.0201269
0.0175628
0.01498
0.0124235
0.00993884
0.00756868
0.00535036
0.00331371
0.00147977
-0.000139536
-0.00154091
-0.00272858
-0.00371244
-0.00450558
-0.00512445
-0.00560047
-0.0059873
-0.00623004
-0.00582508
-0.00408069
0.0372671
0.0383883
0.0377211
0.036094
0.0342327
0.0322513
0.0301061
0.027787
0.0253117
0.0227071
0.020006
0.0172474
0.0144751
0.0117359
0.00907658
0.00654072
0.00416636
0.00198376
1.42549e-05
-0.0017301
-0.00324605
-0.00453793
-0.00561583
-0.00649309
-0.0071869
-0.00773072
-0.00817913
-0.00846691
-0.00806798
-0.0063196
0.039063
0.0401845
0.039403
0.0375715
0.0354824
0.0332717
0.0308946
0.0283402
0.0256277
0.0227866
0.0198523
0.0168659
0.0138732
0.0109225
0.00806176
0.00533533
0.00278171
0.000431393
-0.00169423
-0.00358314
-0.00523224
-0.00664608
-0.00783503
-0.00881272
-0.00959722
-0.0102242
-0.0107491
-0.0110965
-0.0107179
-0.00897642
0.0413562
0.0424285
0.0414696
0.0393725
0.0369969
0.0344989
0.0318333
0.0289882
0.0259853
0.0228572
0.0196421
0.0163835
0.0131295
0.00992969
0.00683296
0.00388416
0.00112178
-0.00142383
-0.00373155
-0.00578966
-0.00759536
-0.00915352
-0.0104748
-0.0115733
-0.012468
-0.0131968
-0.0138162
-0.0142419
-0.0139051
-0.0121917
0.0444028
0.0453142
0.044077
0.0416242
0.0388754
0.0360046
0.0329668
0.0297507
0.0263811
0.0228944
0.0193322
0.0157409
0.0121704
0.0086717
0.00529375
0.00208111
-0.000928418
-0.00370539
-0.00622949
-0.00848968
-0.0104836
-0.0122163
-0.0136989
-0.0149457
-0.0159766
-0.0168313
-0.0175675
-0.0180946
-0.017833
-0.0161885
0.048585
0.049124
0.0474328
0.0444874
0.0412393
0.0378721
0.0343421
0.0306404
0.0267964
0.0228512
0.0188508
0.0148445
0.0108841
0.0070209
0.00330324
-0.000225973
-0.00353107
-0.00658475
-0.00936846
-0.0118724
-0.0140954
-0.0160431
-0.0177262
-0.0191595
-0.0203633
-0.0213783
-0.0222616
-0.0229234
-0.0227954
-0.0213051
0.0547752
0.0545671
0.052131
0.0484847
0.0445311
0.0404426
0.0361878
0.0317721
0.0272362
0.0226311
0.0180097
0.0134261
0.00893325
0.00458148
0.000415981
-0.0035246
-0.00720917
-0.0106145
-0.0137248
-0.0165307
-0.0190341
-0.0212539
-0.0231858
-0.0248444
-0.0262509
-0.0274434
-0.0284748
-0.0292709
-0.0293396
-0.0281702
0.0655827
0.0636878
0.059697
0.0548202
0.0497027
0.0444406
0.0390308
0.0335084
0.0279314
0.0223604
0.0168525
0.0114609
0.00623344
0.00121147
-0.00357067
-0.00808558
-0.0123125
-0.0162367
-0.0198499
-0.0231497
-0.0261324
-0.0287858
-0.0311354
-0.0331899
-0.03496
-0.0364716
-0.0377698
-0.0388439
-0.0393982
-0.0388784
0.0178457
0.0187832
0.0205307
0.0219121
0.0230655
0.0241375
0.0251618
0.0261473
0.027104
0.0280414
0.0289677
0.0298906
0.0308184
0.0317595
0.0327224
0.0337175
0.0347575
0.0358588
0.0370402
0.0383232
0.0397354
0.0413162
0.0431133
0.0451924
0.0476425
0.0505989
0.0542467
0.058799
0.0644829
0.0718201
0.0221655
0.0231406
0.0242649
0.0251999
0.0260328
0.0268254
0.0275893
0.0283288
0.029051
0.0297642
0.0304762
0.031195
0.0319289
0.032687
0.0334787
0.0343158
0.0352121
0.0361846
0.0372535
0.0384435
0.039787
0.0413272
0.0431206
0.0452455
0.0478114
0.0509811
0.0549891
0.0601573
0.0669731
0.0760249
0.0244727
0.0253409
0.0261828
0.0269332
0.0276604
0.0283812
0.0290922
0.0297946
0.0304931
0.0311935
0.031902
0.0326251
0.0333703
0.0341457
0.0349607
0.0358268
0.0367581
0.0377719
0.0388894
0.0401376
0.0415518
0.0431789
0.0450819
0.0473482
0.0501015
0.0535213
0.0578738
0.0635377
0.0711639
0.0814441
0.0264843
0.0272438
0.0279706
0.0286414
0.029305
0.0299711
0.030639
0.0313112
0.0319928
0.0326892
0.0334062
0.0341499
0.0349274
0.0357468
0.0366177
0.0375517
0.0385631
0.0396699
0.0408942
0.0422647
0.0438188
0.0456064
0.0476946
0.0501766
0.0531839
0.0569058
0.0616231
0.0677311
0.075972
0.0870833
0.0283614
0.0290283
0.0296657
0.0302657
0.0308695
0.0314871
0.0321192
0.0327684
0.0334391
0.0341359
0.034864
0.0356294
0.0364389
0.0373008
0.0382248
0.0392232
0.0403106
0.0415059
0.0428326
0.0443209
0.0460104
0.0479535
0.0502213
0.0529113
0.0561608
0.0601666
0.0652195
0.0717259
0.0805115
0.0923715
0.0300753
0.0306603
0.031222
0.0317627
0.0323195
0.0329012
0.0335084
0.0341433
0.0348096
0.0355114
0.0362536
0.0370418
0.037883
0.0387852
0.0397585
0.0408154
0.0419712
0.0432453
0.0446623
0.0462539
0.0480614
0.0501398
0.0525629
0.0554321
0.0588896
0.0631388
0.06848
0.0753327
0.0846042
0.0971721
0.0316232
0.0321352
0.0326327
0.0331251
0.0336452
0.0342001
0.0347899
0.0354166
0.0360833
0.0367936
0.0375522
0.0383645
0.0392372
0.0401784
0.0411984
0.0423097
0.0435282
0.0448739
0.0463722
0.0480558
0.0499677
0.0521645
0.0547224
0.057746
0.0613813
0.0658375
0.0714236
0.0785728
0.0882585
0.101455
0.0330004
0.0334467
0.0338894
0.0343423
0.0348336
0.0353684
0.0359464
0.0365692
0.0372393
0.0379601
0.0387359
0.0395719
0.0404746
0.0414523
0.0425151
0.043676
0.044951
0.0463607
0.0479312
0.049696
0.0516993
0.0539992
0.0566737
0.0598297
0.0636168
0.0682484
0.0740414
0.081441
0.091466
0.105194
0.0341985
0.0345859
0.0349821
0.0354032
0.0358721
0.036392
0.0369623
0.037584
0.0382593
0.0389912
0.0397837
0.0406417
0.0415718
0.0425821
0.0436829
0.0448872
0.0462116
0.0476768
0.0493094
0.051144
0.0532253
0.0556127
0.0583856
0.0616531
0.065567
0.0703446
0.0763093
0.0839164
0.0942098
0.108376
0.0352105
0.0355462
0.0359037
0.0362998
0.0367517
0.0372609
0.0378264
0.0384487
0.0391299
0.0398724
0.04068
0.0415575
0.0425114
0.0435497
0.044683
0.0459242
0.04729
0.0488017
0.0504863
0.0523787
0.0545245
0.0569839
0.0598377
0.0631961
0.0672132
0.0721092
0.0782127
0.0859876
0.0964849
0.111006
0.0360334
0.0363253
0.0366519
0.0370289
0.0374682
0.0379698
0.0385324
0.0391563
0.0398431
0.040595
0.0414156
0.0423095
0.0432832
0.0443446
0.0455043
0.0467755
0.048175
0.0497242
0.0514504
0.0533891
0.0555864
0.0581031
0.0610209
0.0644511
0.0685495
0.0735382
0.0797503
0.0876568
0.0983017
0.113105
0.0366695
0.036926
0.0372291
0.0375921
0.0380224
0.0385188
0.0390798
0.0397056
0.0403972
0.0411568
0.0419878
0.0428947
0.0438839
0.0449634
0.0461437
0.047438
0.0488634
0.0504413
0.0521995
0.0541735
0.05641
0.0589702
0.0619363
0.0654208
0.0695804
0.0746388
0.0809323
0.0889377
0.0996823
0.114706
0.0371258
0.037356
0.0376424
0.0379958
0.0384201
0.0389131
0.0394734
0.0401007
0.0407961
0.0415616
0.0424003
0.0433167
0.0443172
0.0454097
0.0466048
0.0479158
0.0493597
0.0509582
0.0527392
0.0547384
0.0570027
0.0595937
0.0625942
0.066117
0.0703197
0.0754271
0.0817778
0.0898529
0.100657
0.115848
0.0374141
0.0376272
0.0379031
0.0382507
0.0386713
0.0391624
0.0397224
0.0403509
0.0410489
0.0418182
0.0426618
0.0435844
0.0445921
0.045693
0.0468976
0.0482192
0.0496749
0.0512866
0.053082
0.0550971
0.0573791
0.0599896
0.0630117
0.0665587
0.0707886
0.0759266
0.0823132
0.090432
0.101265
0.116577
0.0375496
0.0377543
0.0380253
0.0383702
0.0387892
0.0392794
0.0398393
0.0404685
0.0411678
0.0419389
0.0427851
0.0437107
0.0447219
0.0458268
0.0470359
0.0483626
0.049824
0.0514419
0.0532442
0.055267
0.0575574
0.0601772
0.0632097
0.0667682
0.071011
0.0761636
0.0825672
0.0907068
0.101546
0.116929
0.0375496
0.0377543
0.0380253
0.0383702
0.0387892
0.0392794
0.0398393
0.0404686
0.0411678
0.041939
0.0427851
0.0437107
0.0447219
0.0458268
0.0470359
0.0483626
0.049824
0.0514419
0.0532442
0.055267
0.0575574
0.0601772
0.0632097
0.0667682
0.071011
0.0761635
0.0825672
0.0907068
0.101546
0.116929
0.0374142
0.0376272
0.0379032
0.0382508
0.0386713
0.0391624
0.0397224
0.040351
0.0410489
0.0418182
0.0426619
0.0435845
0.0445922
0.0456931
0.0468976
0.0482192
0.0496749
0.0512865
0.0530819
0.0550971
0.057379
0.0599896
0.0630117
0.0665587
0.0707885
0.0759265
0.0823131
0.090432
0.101264
0.116577
0.0371259
0.0373561
0.0376425
0.0379959
0.0384201
0.0389132
0.0394735
0.0401008
0.0407962
0.0415616
0.0424003
0.0433168
0.0443172
0.0454097
0.0466048
0.0479158
0.0493597
0.0509582
0.0527392
0.0547384
0.0570026
0.0595937
0.0625942
0.066117
0.0703196
0.0754269
0.0817776
0.0898527
0.100657
0.115848
0.0366696
0.0369261
0.0372292
0.0375922
0.0380225
0.0385189
0.0390799
0.0397057
0.0403973
0.0411569
0.0419879
0.0428948
0.043884
0.0449634
0.0461437
0.047438
0.0488634
0.0504413
0.0521995
0.0541735
0.0564099
0.0589701
0.0619363
0.0654207
0.0695803
0.0746386
0.0809321
0.0889374
0.099682
0.114705
0.0360336
0.0363254
0.0366521
0.037029
0.0374683
0.0379699
0.0385325
0.0391565
0.0398432
0.0405951
0.0414156
0.0423096
0.0432832
0.0443447
0.0455044
0.0467756
0.048175
0.0497242
0.0514504
0.0533891
0.0555863
0.058103
0.0610207
0.064451
0.0685493
0.073538
0.0797501
0.0876565
0.0983013
0.113104
0.0352107
0.0355464
0.0359039
0.0363
0.0367519
0.0372611
0.0378265
0.0384489
0.03913
0.0398725
0.0406801
0.0415576
0.0425115
0.0435498
0.044683
0.0459242
0.0472901
0.0488017
0.0504863
0.0523786
0.0545244
0.0569838
0.0598376
0.0631959
0.067213
0.0721089
0.0782123
0.0859872
0.0964844
0.111005
0.0341988
0.0345862
0.0349823
0.0354034
0.0358723
0.0363922
0.0369625
0.0375842
0.0382595
0.0389914
0.0397838
0.0406418
0.0415719
0.0425821
0.0436829
0.0448873
0.0462116
0.0476768
0.0493094
0.0511439
0.0532252
0.0556125
0.0583855
0.0616529
0.0655667
0.0703443
0.0763089
0.083916
0.0942092
0.108375
0.0330007
0.033447
0.0338897
0.0343426
0.0348338
0.0353686
0.0359466
0.0365694
0.0372395
0.0379603
0.0387361
0.039572
0.0404747
0.0414524
0.0425152
0.043676
0.0449511
0.0463607
0.0479311
0.049696
0.0516992
0.053999
0.0566735
0.0598295
0.0636165
0.068248
0.0740409
0.0814404
0.0914653
0.105193
0.0316236
0.0321355
0.0326331
0.0331254
0.0336455
0.0342003
0.0347902
0.0354169
0.0360835
0.0367938
0.0375524
0.0383647
0.0392373
0.0401786
0.0411985
0.0423098
0.0435283
0.0448739
0.0463721
0.0480557
0.0499676
0.0521643
0.0547222
0.0577457
0.061381
0.0658371
0.0714231
0.0785722
0.0882577
0.101454
0.0300757
0.0306607
0.0312224
0.031763
0.0323198
0.0329015
0.0335087
0.0341436
0.0348098
0.0355116
0.0362538
0.0370421
0.0378832
0.0387854
0.0397587
0.0408155
0.0419712
0.0432453
0.0446622
0.0462538
0.0480613
0.0501397
0.0525627
0.0554318
0.0588892
0.0631383
0.0684794
0.075332
0.0846033
0.0971709
0.0283618
0.0290287
0.0296661
0.0302661
0.0308699
0.0314875
0.0321195
0.0327687
0.0334394
0.0341362
0.0348643
0.0356296
0.0364391
0.037301
0.038225
0.0392233
0.0403107
0.041506
0.0428326
0.0443208
0.0460102
0.0479534
0.0502211
0.052911
0.0561604
0.0601661
0.0652189
0.0717251
0.0805105
0.0923703
0.0264848
0.0272443
0.027971
0.0286419
0.0293054
0.0299716
0.0306394
0.0313115
0.0319932
0.0326896
0.0334065
0.0341502
0.0349277
0.035747
0.0366179
0.0375518
0.0385632
0.0396699
0.0408942
0.0422646
0.0438187
0.0456062
0.0476944
0.0501763
0.0531835
0.0569053
0.0616224
0.0677303
0.0759709
0.087082
0.0244732
0.0253415
0.0261833
0.0269337
0.0276609
0.0283817
0.0290927
0.029795
0.0304935
0.0311939
0.0319023
0.0326255
0.0333706
0.0341459
0.0349609
0.035827
0.0367583
0.037772
0.0388894
0.0401376
0.0415517
0.0431788
0.0450817
0.0473479
0.0501011
0.0535208
0.0578732
0.0635368
0.0711628
0.0814426
0.0221661
0.0231412
0.0242654
0.0252005
0.0260333
0.0268259
0.0275898
0.0283293
0.0290515
0.0297646
0.0304766
0.0311954
0.0319293
0.0326873
0.033479
0.0343161
0.0352123
0.0361848
0.0372536
0.0384435
0.0397869
0.0413271
0.0431204
0.0452452
0.047811
0.0509806
0.0549884
0.0601564
0.066972
0.0760234
0.0178463
0.0187837
0.0205312
0.0219126
0.023066
0.024138
0.0251622
0.0261478
0.0271045
0.0280418
0.0289681
0.029891
0.0308187
0.0317598
0.0327227
0.0337177
0.0347577
0.0358589
0.0370403
0.0383233
0.0397354
0.0413161
0.0431132
0.0451922
0.0476422
0.0505984
0.0542461
0.0587981
0.0644818
0.0718186
0.0655811
0.0636862
0.0596954
0.0548186
0.049701
0.044439
0.0390291
0.0335067
0.0279298
0.0223588
0.0168509
0.0114594
0.006232
0.0012101
-0.00357195
-0.00808678
-0.0123136
-0.0162377
-0.0198508
-0.0231506
-0.0261332
-0.0287864
-0.031136
-0.0331903
-0.0349604
-0.0364719
-0.0377701
-0.0388442
-0.0393985
-0.0388786
0.054774
0.0545659
0.0521297
0.0484835
0.0445298
0.0404413
0.0361865
0.0317708
0.0272349
0.0226298
0.0180085
0.0134249
0.0089321
0.00458039
0.000414948
-0.00352557
-0.00721006
-0.0106153
-0.0137255
-0.0165313
-0.0190347
-0.0212544
-0.0231863
-0.0248448
-0.0262512
-0.0274437
-0.0284751
-0.0292711
-0.0293398
-0.0281704
0.0485841
0.049123
0.0474319
0.0444864
0.0412383
0.0378711
0.034341
0.0306394
0.0267954
0.0228502
0.0188498
0.0148435
0.0108832
0.00702002
0.00330242
-0.000226741
-0.00353178
-0.00658539
-0.00936904
-0.0118729
-0.0140958
-0.0160435
-0.0177266
-0.0191598
-0.0203636
-0.0213785
-0.0222618
-0.0229236
-0.0227956
-0.0213053
0.044402
0.0453135
0.0440762
0.0416234
0.0388746
0.0360038
0.032966
0.0297499
0.0263802
0.0228936
0.0193314
0.0157401
0.0121697
0.008671
0.00529309
0.00208051
-0.000928975
-0.00370589
-0.00622994
-0.00849007
-0.0104839
-0.0122166
-0.0136992
-0.0149459
-0.0159768
-0.0168315
-0.0175676
-0.0180947
-0.0178331
-0.0161886
0.0413557
0.042428
0.041469
0.0393719
0.0369963
0.0344983
0.0318327
0.0289875
0.0259846
0.0228566
0.0196414
0.0163829
0.0131289
0.00992913
0.00683245
0.00388368
0.00112135
-0.00142421
-0.00373188
-0.00578994
-0.00759559
-0.00915371
-0.010475
-0.0115734
-0.012468
-0.0131968
-0.0138162
-0.0142418
-0.0139051
-0.0121917
0.0390625
0.0401841
0.0394025
0.037571
0.035482
0.0332712
0.0308941
0.0283397
0.0256272
0.0227861
0.0198519
0.0168654
0.0138727
0.0109221
0.00806137
0.00533498
0.00278139
0.000431121
-0.00169445
-0.00358333
-0.00523238
-0.00664618
-0.00783509
-0.00881275
-0.00959722
-0.0102241
-0.010749
-0.0110965
-0.0107179
-0.00897641
0.0372667
0.038388
0.0377208
0.0360937
0.0342324
0.0322509
0.0301057
0.0277866
0.0253113
0.0227067
0.0200057
0.017247
0.0144747
0.0117356
0.00907629
0.00654047
0.00416614
0.00198358
1.41179e-05
-0.0017302
-0.0032461
-0.00453795
-0.00561582
-0.00649305
-0.00718683
-0.00773063
-0.00817901
-0.00846678
-0.00806786
-0.00631953
0.0358411
0.0369159
0.0363239
0.0348563
0.0331809
0.0313882
0.0294346
0.0273113
0.0250348
0.0226297
0.0201266
0.0175626
0.0149797
0.0124233
0.00993864
0.00756852
0.00535024
0.00331362
0.00147971
-0.000139556
-0.0015409
-0.00272854
-0.00371237
-0.00450548
-0.00512432
-0.00560032
-0.00598713
-0.00622986
-0.0058249
-0.00408057
0.0346729
0.035674
0.0351401
0.0338041
0.0322816
0.0306475
0.0288562
0.0268997
0.0247934
0.0225601
0.0202284
0.0178336
0.0154163
0.01302
0.0106889
0.00846468
0.00638385
0.00447563
0.00276068
0.00125068
-5.11446e-05
-0.00114896
-0.00205251
-0.00277471
-0.00333136
-0.00375197
-0.00408927
-0.00429833
-0.00389707
-0.00216201
0.0336941
0.0346019
0.034109
0.032896
0.031501
0.0300017
0.028351
0.0265397
0.024582
0.0224994
0.0203187
0.0180736
0.0158029
0.013549
0.0113546
0.0092604
0.00730196
0.00550787
0.00389828
0.00248461
0.00126994
0.000250134
-0.000584455
-0.00124659
-0.00175149
-0.00212687
-0.0024245
-0.00260889
-0.00221821
-0.000494869
0.0328583
0.0336546
0.0331901
0.0320948
0.0308152
0.0294302
0.027903
0.0262206
0.0243953
0.0224471
0.0204016
0.0182908
0.0161521
0.0140264
0.0119553
0.00997814
0.0081298
0.0064381
0.00492268
0.00359462
0.00245684
0.00150521
0.000730172
0.000119102
-0.000342722
-0.000681308
-0.000947376
-0.00111429
-0.000739281
0.000971152
0.0321245
0.0328104
0.0323629
0.0313654
0.0302028
0.028917
0.0274994
0.0259335
0.024228
0.0224018
0.0204792
0.0184907
0.0164724
0.0144636
0.0125048
0.0106343
0.00888607
0.00728711
0.00585659
0.00460521
0.00353574
0.00264404
0.00192064
0.00135306
0.000927032
0.000618165
0.000376863
0.000221537
0.000576901
0.00227351
0.031467
0.0320361
0.0316065
0.0306958
0.0296408
0.0284487
0.0271289
0.02567
0.0240751
0.0223613
0.0205521
0.0186766
0.0167694
0.0148687
0.0130136
0.0112414
0.009585
0.00807086
0.00671753
0.00553539
0.00452702
0.00368829
0.00300983
0.0024793
0.00208288
0.00179767
0.00157533
0.00142666
0.00175907
0.00344046
0.030867
0.0313124
0.030903
0.0300735
0.0291114
0.0280165
0.0267828
0.0254228
0.0239318
0.0223233
0.0206202
0.0188505
0.0170474
0.0152478
0.0134895
0.0118088
0.0102377
0.00880191
0.00751943
0.00640031
0.00544699
0.00465531
0.00401606
0.00351704
0.00314484
0.00287801
0.00266954
0.00252324
0.00282977
0.00449343
0.0303008
0.0306291
0.0302417
0.0294839
0.0286049
0.0276089
0.0264562
0.0251868
0.0237939
0.0222854
0.020683
0.0190136
0.0173093
0.0156054
0.0139386
0.0123442
0.0108531
0.00949043
0.00827361
0.00721235
0.00630894
0.00555928
0.00495426
0.0044819
0.00412916
0.00387596
0.00367676
0.00352901
0.00380682
0.00544859
0.0297516
0.0299728
0.0296089
0.0289195
0.0281172
0.0272104
0.0261443
0.0249567
0.0236572
0.0222451
0.0207394
0.0191665
0.017557
0.0159449
0.0143658
0.0128536
0.0114385
0.0101449
0.00898949
0.00798183
0.00712403
0.00641202
0.00583688
0.00538683
0.00504921
0.00480523
0.00461096
0.00445816
0.00470443
0.00631786
0.0292093
0.0293312
0.0289933
0.0283719
0.0276391
0.0268108
0.0258405
0.0247288
0.0235183
0.0222
0.0207885
0.0193093
0.017792
0.0162691
0.0147749
0.0133422
0.0120002
0.0107724
0.00967515
0.00871762
0.00790178
0.00722363
0.00667445
0.00624269
0.00591608
0.00567706
0.00548348
0.0053221
0.00553382
0.00710966
0.0286665
0.0286927
0.0283825
0.0278284
0.0271646
0.0264096
0.0255334
0.0245001
0.0233737
0.0221474
0.0208287
0.0194418
0.0180152
0.0165801
0.0151692
0.0138143
0.0125434
0.0113792
0.0103377
0.00942748
0.00865051
0.00800285
0.007476
0.00705869
0.00673905
0.00650071
0.00630345
0.00612985
0.00630373
0.00782937
0.0281159
0.0280482
0.0277683
0.0272812
0.026686
0.0260027
0.0252139
0.0242677
0.0232198
0.0220845
0.0208585
0.0195636
0.0182274
0.0168797
0.0155517
0.0142738
0.013073
0.0119711
0.0109835
0.0101184
0.00937767
0.00875742
0.0082494
0.00784271
0.00752588
0.00728369
0.00707808
0.00688831
0.00702068
0.00847967
0.0275479
0.0273908
0.0271441
0.0267244
0.0261991
0.0255832
0.0248742
0.0240274
0.0230546
0.0220088
0.0208763
0.019674
0.0184288
0.0171692
0.0159246
0.0147241
0.0135934
0.0125534
0.0116186
0.0107969
0.0100901
0.00949428
0.00900159
0.00860148
0.00828296
0.00803197
0.00781283
0.00760247
0.00768913
0.00906087
0.0269526
0.0267134
0.0265027
0.02615
0.0256945
0.0251482
0.0245156
0.0237696
0.0228763
0.0219181
0.0208801
0.0197721
0.0186197
0.0174498
0.0162904
0.0151686
0.0141089
0.013131
0.0122486
0.0114691
0.0107941
0.0102198
0.00973869
0.00934073
0.00901549
0.00875009
0.0085115
0.00827543
0.00831154
0.00957112
0.02632
0.0260086
0.0258375
0.0255523
0.025167
0.0246921
0.0241356
0.0234866
0.0226831
0.0218093
0.0208678
0.0198567
0.0187997
0.0177225
0.0166509
0.0156104
0.0146236
0.013709
0.0128792
0.012141
0.0114957
0.0109398
0.0104662
0.0100653
0.00972749
0.00944115
0.00917622
0.00890847
0.00888835
0.0100068
0.0256376
0.0252686
0.0251418
0.0249253
0.024612
0.0242121
0.0237311
0.0231711
0.0224718
0.0216792
0.0208367
0.0199264
0.0189686
0.017988
0.0170083
0.0160527
0.015142
0.0142926
0.0135162
0.0128187
0.0122011
0.0116601
0.0111889
0.0107791
0.0104218
0.0101069
0.00980748
0.009501
0.00941789
0.0103627
0.0248884
0.0244834
0.024407
0.0242622
0.024023
0.0237009
0.0232979
0.0228224
0.0222361
0.0215273
0.0207848
0.0199795
0.0191258
0.018247
0.0173646
0.0164989
0.0156683
0.0148872
0.0141655
0.0135082
0.0129158
0.0123852
0.0119108
0.0114848
0.0110997
0.010747
0.0104036
0.0100502
0.00989605
0.0106329
0.0240505
0.0236393
0.0236211
0.023553
0.0233927
0.0231514
0.0228302
0.0224411
0.0219675
0.0213524
0.02071
0.0200146
0.0192707
0.0185002
0.0177216
0.016952
0.0162066
0.0154973
0.0148318
0.0142139
0.0136435
0.0131181
0.012633
0.0121821
0.0117593
0.0113582
0.01096
0.0105504
0.0103161
0.0108112
0.0231034
0.0227313
0.0227779
0.02279
0.0227156
0.0225609
0.0223259
0.0220264
0.0216601
0.0211502
0.0206079
0.0200282
0.0194012
0.0187467
0.0180801
0.0174147
0.0167616
0.016129
0.0155221
0.0149425
0.0143897
0.0138629
0.0133587
0.0128723
0.0123999
0.0119378
0.0114723
0.0109966
0.010672
0.0108943
0.0220129
0.0217887
0.0219176
0.0220004
0.0220095
0.0219421
0.0217932
0.0215797
0.0213104
0.0209161
0.0204699
0.0200105
0.0195089
0.0189818
0.0184411
0.0178945
0.0173475
0.016803
0.0162619
0.0157228
0.0151841
0.0146496
0.0141159
0.0135801
0.0130421
0.012502
0.0119528
0.011397
0.010964
0.0108819
0.0205701
0.0207537
0.0210686
0.0212225
0.0212982
0.0213064
0.021235
0.0210948
0.020907
0.0206361
0.0202865
0.0199513
0.0195881
0.0192078
0.0188165
0.0184141
0.0179971
0.0175606
0.0170986
0.0166065
0.0160832
0.0155281
0.0149476
0.0143412
0.0137135
0.0130707
0.0124137
0.0117534
0.0111765
0.0107595
0.0180895
0.0188852
0.019685
0.0200858
0.0203147
0.020456
0.0205118
0.0204914
0.0204234
0.0203052
0.0200955
0.0199083
0.0197029
0.019482
0.0192442
0.0189805
0.0186784
0.0183269
0.0179153
0.0174406
0.0169209
0.0162874
0.0156227
0.0149178
0.0141807
0.0134229
0.0126525
0.0118838
0.0111571
0.0104524
0.0141797
0.0147724
0.0162407
0.0173257
0.0181122
0.0187371
0.0192269
0.0195928
0.0198628
0.0200472
0.0201092
0.0201229
0.0200602
0.0199174
0.019693
0.0193834
0.0189856
0.0185027
0.0179377
0.0172908
0.0165565
0.0158391
0.0150838
0.0143058
0.013525
0.0127543
0.0120033
0.0112865
0.010614
0.00993098
-0.0405562
-0.0326132
-0.0266153
-0.0217449
-0.0177247
-0.0143779
-0.0115546
-0.00914533
-0.00706705
-0.00525649
-0.00366498
-0.00225456
-0.000995219
0.000137088
0.00116186
0.00209505
0.0029498
0.0037369
0.00446513
0.00514132
0.00577043
0.00635545
0.00689727
0.0073946
0.00784354
0.00823577
0.00856136
0.00881797
0.00900722
0.00905323
-0.0407073
-0.0326371
-0.0263446