/*--------------------------------*- C++ -*----------------------------------*\
  =========                 |
  \\      /  F ield         | OpenFOAM: The Open Source CFD Toolbox
   \\    /   O peration     | Website:  https://openfoam.org
    \\  /    A nd           | Version:  12
     \\/     M anipulation  |
\*---------------------------------------------------------------------------*/
FoamFile
{
    format      ascii;
    class       surfaceScalarField;
    location    "240";
    object      phi;
}
// * * * * * * * * * * * * * * * * * * * * * * * * * * * * * * * * * * * * * //

dimensions      [0 3 -1 0 0 0 0];

internalField   nonuniform List<scalar> 
13275
(
0.369023
-0.00462574
0.369481
-0.011485
0.369794
-0.0154057
0.369909
-0.01736
-0.0180299
0.369849
0.351098
-0.00489883
0.35146
-0.0118471
0.351681
-0.0156266
0.351643
-0.0173212
-0.0176323
0.351245
0.334002
-0.00502172
0.334077
-0.0119228
0.333968
-0.0155174
0.333634
-0.016987
-0.0170938
0.333096
0.317721
-0.0049923
0.317511
-0.0117121
0.317103
-0.0151096
0.316533
-0.016417
-0.0164195
0.315858
0.302245
-0.00483551
0.30179
-0.011257
0.301125
-0.0144445
0.300336
-0.0156282
-0.0155826
0.299499
0.287534
-0.00457532
0.286872
-0.0105951
0.285978
-0.0135504
0.284977
-0.0146272
-0.0145636
0.283958
0.273546
-0.00422902
0.272706
-0.00975525
0.271606
-0.0124504
0.270403
-0.0134236
-0.0133579
0.269197
0.260244
-0.00381035
0.259251
-0.0087631
0.25797
-0.0111692
0.256582
-0.0120351
-0.0119753
0.255199
0.247593
-0.00333241
0.246476
-0.00764573
0.245043
-0.00973655
0.243497
-0.0104889
-0.0104386
0.24196
0.235564
-0.00280895
0.234351
-0.00643273
0.232802
-0.00818747
0.231133
-0.00881985
-0.0087799
0.229475
0.224129
-0.00225436
0.222852
-0.00515549
0.221225
-0.00656024
0.219472
-0.00706752
-0.00703757
0.21773
0.213259
-0.00168307
0.211949
-0.00384544
0.210283
-0.00489372
0.208488
-0.0052729
-0.00525186
0.206702
0.202927
-0.00110897
0.201614
-0.00253207
0.199945
-0.00322469
0.198147
-0.00347496
-0.00346156
0.196357
0.193107
-0.000544615
0.191817
-0.00124184
0.190177
-0.00158541
0.18841
-0.001708
-0.00170127
0.18665
0.183771
7.87343e-09
0.18253
6.1799e-08
0.180944
1.17543e-07
0.179236
1.59213e-07
1.84378e-07
0.177534
0.183771
0.000544631
0.18253
0.00124196
0.180944
0.00158565
0.179236
0.00170831
0.00170164
0.177534
0.193107
0.00110898
0.191817
0.00253219
0.190177
0.00322493
0.18841
0.00347528
0.00346193
0.18665
0.202927
0.00168309
0.201614
0.00384557
0.199945
0.00489396
0.198147
0.00527322
0.00525223
0.196357
0.213259
0.00225437
0.211949
0.00515562
0.210283
0.00656047
0.208488
0.00706784
0.00703794
0.206702
0.224129
0.00280897
0.222852
0.00643286
0.221225
0.00818771
0.219472
0.00882017
0.00878027
0.21773
0.235564
0.00333243
0.234351
0.00764586
0.232802
0.00973679
0.231133
0.0104893
0.0104389
0.229475
0.247593
0.00381037
0.246476
0.00876324
0.245043
0.0111694
0.243497
0.0120355
0.0119757
0.24196
0.260244
0.00422904
0.259251
0.00975539
0.25797
0.0124507
0.256582
0.0134239
0.0133583
0.255199
0.273546
0.00457534
0.272706
0.0105953
0.271606
0.0135507
0.270403
0.0146275
0.014564
0.269197
0.287534
0.00483554
0.286872
0.0112572
0.285978
0.0144448
0.284977
0.0156286
0.0155831
0.283958
0.302245
0.00499233
0.30179
0.0117123
0.301125
0.0151099
0.300336
0.0164173
0.0164199
0.299499
0.317721
0.00502176
0.317511
0.011923
0.317103
0.0155177
0.316533
0.0169875
0.0170943
0.315858
0.334002
0.00489888
0.334077
0.0118473
0.333968
0.0156269
0.333634
0.0173216
0.0176329
0.333095
0.351098
0.0046258
0.35146
0.0114853
0.351681
0.0154061
0.351642
0.0173605
0.0180305
0.351245
0.369023
0.369481
0.369794
0.369909
0.369849
0.197356
-0.0505293
-0.197396
0.196943
-0.0577696
0.195918
-0.0640406
0.194263
-0.0695576
0.192034
-0.0742855
0.189301
-0.0781587
0.186137
-0.0810863
0.182617
-0.0829452
0.178829
-0.0835913
0.174887
-0.0829754
0.170876
-0.0809011
0.166951
-0.0772308
0.163258
-0.072048
0.15994
-0.0654432
0.157128
-0.0575946
0.154927
-0.048758
0.153408
-0.0392451
0.152606
-0.0293938
0.152513
-0.0195399
0.153091
-0.00999137
0.154249
-0.000976753
0.15595
0.00729075
0.158083
0.0147234
0.160557
0.0212284
0.163283
0.0267865
0.166183
0.0314171
0.169185
0.0351663
0.172229
0.0380955
0.175255
0.0402752
0.041771
0.178172
0.194725
-0.0506483
-0.194606
0.194061
-0.0571055
0.192707
-0.0626866
0.190762
-0.0676134
0.188305
-0.0718286
0.185408
-0.0752615
0.182138
-0.0778156
0.178563
-0.0793707
0.17477
-0.0797983
0.170856
-0.0790607
0.166899
-0.0769444
0.163048
-0.0733796
0.159434
-0.0684344
0.156188
-0.0621976
0.153429
-0.0548356
0.151253
-0.0465819
0.149726
-0.037718
0.148881
-0.0285481
0.148713
-0.0193723
0.149184
-0.0104628
0.150252
-0.00204455
0.151826
0.00571703
0.153838
0.0127109
0.1562
0.0188663
0.158828
0.0241589
0.161645
0.0286006
0.164583
0.0322283
0.167585
0.0350933
0.170595
0.0372653
0.0388773
0.173488
0.191408
-0.0503891
-0.191667
0.190441
-0.0561384
0.188873
-0.061119
0.186784
-0.0655241
0.184239
-0.0692842
0.181299
-0.0723212
0.17802
-0.0745368
0.174467
-0.0758178
0.170725
-0.0760565
0.166873
-0.0752081
0.162993
-0.073065
0.159225
-0.0696106
0.155688
-0.0648974
0.152503
-0.0590132
0.149781
-0.052114
0.147613
-0.0444136
0.146062
-0.0361668
0.14516
-0.0276466
0.144909
-0.0191213
0.145281
-0.0108342
0.146224
-0.00298782
0.147673
0.00426789
0.149556
0.0108281
0.151792
0.0166298
0.154303
0.0216483
0.157013
0.0258904
0.159856
0.0293853
0.162775
0.0321741
0.165719
0.0343214
0.03603
0.168567
0.18798
-0.0497887
-0.188581
0.186756
-0.0549141
0.185006
-0.059369
0.18279
-0.0633084
0.180165
-0.0666592
0.177184
-0.0693393
0.173898
-0.0712513
0.170368
-0.0722876
0.166679
-0.0723678
0.162891
-0.0714197
0.159094
-0.0692682
0.15541
-0.0659268
0.15195
-0.0614374
0.148824
-0.0558871
0.146133
-0.0494227
0.14396
-0.0422413
0.142368
-0.0345741
0.141388
-0.0266672
0.141028
-0.0187608
0.141266
-0.0110717
0.142058
-0.00378075
0.143351
0.00297552
0.145076
0.00910271
0.147162
0.0145439
0.149535
0.0192755
0.152124
0.0233018
0.154863
0.0266457
0.157698
0.0293397
0.160578
0.0314407
0.0332179
0.16339
0.184472
-0.0488963
-0.185365
0.183023
-0.0534649
0.181105
-0.0574509
0.178771
-0.060974
0.176069
-0.0639578
0.173048
-0.0663182
0.169757
-0.0679603
0.166253
-0.0687833
0.162615
-0.0687299
0.158889
-0.0676942
0.155173
-0.0655518
0.151571
-0.0623245
0.148184
-0.0580502
0.145111
-0.0528149
0.142446
-0.0467576
0.140265
-0.0400605
0.138626
-0.032935
0.137563
-0.0256037
0.137084
-0.018282
0.137176
-0.0111638
0.137805
-0.00440987
0.138923
0.00185738
0.140472
0.0075537
0.142387
0.0126286
0.144602
0.0170611
0.147049
0.0208542
0.149668
0.0240268
0.152404
0.0266044
0.155209
0.028635
0.0304448
0.157983
0.180852
-0.047741
-0.182007
0.179199
-0.0518114
0.177129
-0.0553814
0.174689
-0.0585341
0.171922
-0.0611903
0.168869
-0.0632656
0.165578
-0.0646691
0.162103
-0.0653086
0.158512
-0.0651391
0.154849
-0.0640309
0.151208
-0.0619111
0.147682
-0.0587984
0.144363
-0.0547307
0.141341
-0.0497927
0.138699
-0.0441163
0.13651
-0.0378712
0.134826
-0.0312514
0.133682
-0.0244591
0.133088
-0.0176883
0.133037
-0.0111123
0.133501
-0.00487409
0.13444
0.000917844
0.135805
0.00618912
0.137538
0.0108959
0.139579
0.0150202
0.141867
0.0185654
0.144346
0.0215479
0.146963
0.0239879
0.149672
0.0259255
0.0277291
0.152388
0.1771
-0.0463472
-0.178493
0.175263
-0.0499749
0.173061
-0.0531787
0.17053
-0.0560033
0.167707
-0.0583678
0.164631
-0.0601895
0.161345
-0.0613828
0.157902
-0.0618661
0.154355
-0.0615919
0.150752
-0.0604282
0.147182
-0.0583411
0.143727
-0.0553432
0.140471
-0.0514741
0.137495
-0.0468175
0.134878
-0.0414987
0.132683
-0.0356764
0.130961
-0.0295294
0.129744
-0.0232419
0.129045
-0.0169892
0.128859
-0.0109264
0.129165
-0.00518052
0.12993
0.000152793
0.131111
0.00500866
0.132657
0.00934968
0.134516
0.0131615
0.136633
0.0164484
0.138955
0.0192254
0.141433
0.0215097
0.144024
0.0233345
0.0250943
0.146659
0.173206
-0.0447413
-0.174812
0.171209
-0.0479785
0.168891
-0.050861
0.166283
-0.0533952
0.163416
-0.0555005
0.160324
-0.0570972
0.157046
-0.0581045
0.153635
-0.0584556
0.150129
-0.0580859
0.146585
-0.0568841
0.143081
-0.0548372
0.139692
-0.0519541
0.136495
-0.0482769
0.133565
-0.0438876
0.130972
-0.0389062
0.128777
-0.0334809
0.127025
-0.027777
0.125746
-0.021963
0.124954
-0.0161974
0.124647
-0.0106193
0.124808
-0.00534134
0.125408
-0.000447634
0.126411
0.0040058
0.127773
0.00798767
0.129447
0.0114873
0.131385
0.0145102
0.133539
0.0170712
0.135864
0.0191852
0.138317
0.0208813
0.022564
0.140847
0.169165
-0.0429505
-0.170955
0.167031
-0.0458448
0.164615
-0.0484454
0.161943
-0.0507225
0.159039
-0.0525974
0.155937
-0.0539944
0.15267
-0.0548376
0.149289
-0.0550747
0.145824
-0.0546207
0.142336
-0.0533963
0.138894
-0.0513953
0.135567
-0.0486275
0.132427
-0.0451364
0.129542
-0.041003
0.126977
-0.0363414
0.124787
-0.0312907
0.123014
-0.0260037
0.121686
-0.0206347
0.120816
-0.0153273
0.120403
-0.0102063
0.120433
-0.00537176
0.120883
-0.000897129
0.121719
0.00316949
0.122904
0.00680241
0.124397
0.00999439
0.126155
0.0127526
0.128134
0.0150915
0.130294
0.0170256
0.132594
0.0185808
0.0201592
0.134999
0.164972
-0.0410016
-0.166921
0.162723
-0.0435953
0.160225
-0.0459475
0.157499
-0.0479965
0.154568
-0.0496661
0.151459
-0.0508858
0.148208
-0.0515865
0.144855
-0.0517216
0.14143
-0.0511962
0.137996
-0.0499619
0.134613
-0.0480126
0.131347
-0.0453608
0.128262
-0.0420517
0.125423
-0.0381645
0.12289
-0.033808
0.120712
-0.0291124
0.118927
-0.0242194
0.117562
-0.0192698
0.116629
-0.0143941
0.116127
-0.00970411
0.116044
-0.00528857
0.116358
-0.00121168
0.117042
0.00248561
0.118062
0.00578262
0.119381
0.00867525
0.120962
0.0111721
0.122765
0.0132879
0.124754
0.0150367
0.126892
0.0164432
0.0178964
0.129155
0.160625
-0.0389198
-0.162707
0.158279
-0.0412499
0.155714
-0.0433821
0.152945
-0.0452277
0.149993
-0.046714
0.146883
-0.0477759
0.143651
-0.0483539
0.140324
-0.0483953
0.136941
-0.047813
0.133558
-0.0465793
0.130233
-0.0446874
0.127025
-0.042153
0.123997
-0.0390229
0.121206
-0.0353742
0.118709
-0.0313104
0.11655
-0.0269534
0.114764
-0.0224339
0.113375
-0.017881
0.112394
-0.0134127
0.111819
-0.00912915
0.111639
-0.00510908
0.111836
-0.0014084
0.112384
0.00193822
0.113252
0.00491447
0.114408
0.00751893
0.115819
0.00976149
0.117449
0.011657
0.119266
0.0132197
0.121236
0.0144737
0.0157877
0.123345
0.156119
-0.0367286
-0.15831
0.153695
-0.0388264
0.151075
-0.0407623
0.148274
-0.042426
0.145308
-0.0437484
0.142201
-0.044669
0.138987
-0.0451401
0.135689
-0.0450971
0.132349
-0.0444723
0.129017
-0.0432481
0.125749
-0.041419
0.1226
-0.0390042
0.119629
-0.0360512
0.116889
-0.032635
0.114433
-0.0288537
0.1123
-0.024821
0.110524
-0.0206574
0.109124
-0.0164807
0.108108
-0.0123975
0.107477
-0.00849757
0.107218
-0.0048504
0.107314
-0.00150461
0.107742
0.00151058
0.108474
0.00418258
0.109481
0.00651224
0.110732
0.00851039
0.112197
0.010192
0.113845
0.0115714
0.115646
0.0126729
0.0138398
0.117594
0.151449
-0.0344494
-0.153728
0.148963
-0.0363411
0.146301
-0.0381005
0.143476
-0.0396003
0.140503
-0.0407755
0.137405
-0.0415714
0.134212
-0.0419467
0.130944
-0.0418295
0.127647
-0.0411752
0.124368
-0.0399688
0.121157
-0.0382084
0.118069
-0.0359159
0.115157
-0.0331392
0.112473
-0.0299509
0.110063
-0.0264435
0.107964
-0.0227228
0.106206
-0.0188995
0.104806
-0.0150806
0.103771
-0.0113623
0.103098
-0.00782468
0.102777
-0.00452896
0.10279
-0.00151731
0.103114
0.0011858
0.103726
0.00357089
0.104598
0.00564058
0.105702
0.00740638
0.107011
0.00888318
0.108497
0.0100853
0.110132
0.0110375
0.0120547
0.111917
0.146609
-0.0321018
-0.148957
0.144076
-0.0338084
0.141384
-0.0354081
0.138543
-0.0367596
0.13557
-0.0378021
0.132487
-0.0384885
0.129315
-0.0387753
0.126082
-0.0385964
0.122831
-0.0379237
0.119605
-0.0367434
0.116454
-0.0350575
0.113429
-0.0328905
0.11058
-0.0302902
0.107955
-0.0273263
0.105598
-0.0240858
0.103541
-0.0206665
0.101811
-0.0171695
0.100423
-0.013692
0.0993806
-0.01032
0.0986807
-0.00712484
0.098312
-0.00416027
0.0982574
-0.00146271
0.0984958
0.000947435
0.0990034
0.00306329
0.0997552
0.00488878
0.100726
0.00643572
0.10189
0.00771874
0.103223
0.00875218
0.1047
0.00956082
0.0104305
0.106324
0.141591
-0.0297028
-0.14399
0.139025
-0.0312416
0.136313
-0.0326962
0.133466
-0.0339131
0.130499
-0.0348351
0.127435
-0.0354242
0.12429
-0.0356301
0.121096
-0.0354023
0.117893
-0.034721
0.114724
-0.0335748
0.111636
-0.0319696
0.108678
-0.0299317
0.105896
-0.0275086
0.103336
-0.0247666
0.101037
-0.021787
0.0990306
-0.0186596
0.0973378
-0.0154766
0.0959711
-0.0123253
0.0949336
-0.00928253
0.0942201
-0.00641132
0.0938185
-0.00375873
0.0937118
-0.00135604
0.0938795
0.000779829
0.0942987
0.00264409
0.0949458
0.00424158
0.0957974
0.00558413
0.0968303
0.00668588
0.0980215
0.00756094
0.0993483
0.00823404
0.00896178
0.100817
0.136385
-0.0272677
-0.13882
0.133797
-0.0286545
0.131077
-0.029976
0.128234
-0.0310694
0.125281
-0.0318827
0.12224
-0.0323828
0.119127
-0.0325169
0.115976
-0.0322522
0.112827
-0.0315715
0.10972
-0.0304674
0.106699
-0.028949
0.103811
-0.0270442
0.101102
-0.0247995
0.0986133
-0.0222775
0.0963799
-0.0195536
0.0944302
-0.0167099
0.092783
-0.0138295
0.0914481
-0.0109904
0.0904264
-0.0082609
0.0897114
-0.00569632
0.0892903
-0.00333756
0.0891456
-0.00121137
0.0892571
0.000668326
0.0896028
0.00229838
0.0901602
0.0036842
0.090907
0.00483732
0.0918217
0.00577119
0.0928831
0.00649953
0.0940705
0.00704662
0.00764081
0.0953915
0.130976
-0.024811
-0.133433
0.128382
-0.0260606
0.125665
-0.0272585
0.122833
-0.0282373
0.119903
-0.0289528
0.11689
-0.0293697
0.113816
-0.0294432
0.110715
-0.0291519
0.107625
-0.0284807
0.104584
-0.0274265
0.101636
-0.0260012
0.0988254
-0.0242337
0.0961948
-0.0221688
0.0937827
-0.0198654
0.0916216
-0.0173925
0.0897364
-0.0148247
0.0881432
-0.0122363
0.0868493
-0.00969646
0.0858537
-0.00726528
0.0851483
-0.00499096
0.0847196
-0.00290881
0.0845498
-0.00104156
0.0846187
0.000599428
0.0849048
0.00201226
0.0853864
0.00320259
0.0860423
0.0041814
0.0868522
0.0049613
0.0877963
0.0055554
0.0888558
0.00598717
0.00645815
0.0900384
0.125349
-0.0223473
-0.127813
0.122762
-0.0234734
0.120058
-0.0245546
0.117248
-0.025427
0.114348
-0.0260526
0.111371
-0.0263925
0.108344
-0.0264168
0.105301
-0.0261082
0.102275
-0.0254554
0.0993076
-0.0244588
0.0964393
-0.023133
0.0937124
-0.0215069
0.0911669
-0.0196233
0.0888386
-0.017537
0.0867569
-0.0153109
0.0849438
-0.0130116
0.0834126
-0.0107051
0.0821683
-0.00845211
0.081208
-0.00630498
0.0805224
-0.00430533
0.0800969
-0.00248336
0.0799136
-0.000858219
0.0799521
0.000560869
0.0801914
0.00177296
0.0806103
0.00278369
0.0811885
0.00360328
0.0819065
0.00424331
0.0827457
0.00471612
0.0836889
0.00504401
0.00540342
0.0847436
0.119485
-0.0198922
-0.12194
0.116917
-0.0209055
0.114238
-0.0218755
0.111461
-0.0226493
0.108598
-0.0231894
0.105667
-0.0234615
0.102696
-0.0234465
0.0997177
-0.0231296
0.096766
-0.0225036
0.0938795
-0.0215723
0.0910984
-0.0203519
0.0884627
-0.0188711
0.0860097
-0.0171704
0.0837725
-0.0152998
0.0817776
-0.013316
0.080044
-0.011278
0.0785824
-0.00924352
0.0773957
-0.00726539
0.0764792
-0.00538854
0.0758224
-0.00364854
0.07541
-0.00207095
0.0752236
-0.000671748
0.0752428
0.000541655
0.0754468
0.00156898
0.0758149
0.00241559
0.0763273
0.00309081
0.0769656
0.00360508
0.0777119
0.00396975
0.0785503
0.00420565
0.00446598
0.0794877
0.113357
-0.0174618
-0.115788
0.110821
-0.0183695
0.108179
-0.0192334
0.105444
-0.0199145
0.102629
-0.0203741
0.0997557
-0.0205882
0.0968518
-0.0205426
0.0939481
-0.020226
0.0910795
-0.019635
0.0882834
-0.0187762
0.0855984
-0.0176669
0.0830624
-0.016335
0.0807102
-0.0148182
0.0785719
-0.0131616
0.0766714
-0.0114154
0.0750247
-0.00963128
0.0736402
-0.00785906
0.0725187
-0.00614383
0.0716539
-0.00452375
0.0710341
-0.00302877
0.0706434
-0.00168023
0.0704629
-0.000491309
0.0704725
0.000532085
0.0706514
0.0013901
0.0709793
0.00208767
0.071437
0.00263309
0.0720066
0.00303552
0.0726711
0.00330525
0.0734155
0.00346129
0.00363545
0.074246
0.10693
-0.0150725
-0.10932
0.10444
-0.015879
0.101849
-0.0166422
0.0991681
-0.0172341
0.0964142
-0.0176202
0.0936107
-0.0177848
0.0907849
-0.0177167
0.0879676
-0.0174087
0.0851932
-0.0168606
0.0824982
-0.0160812
0.0799195
-0.0150882
0.0774927
-0.0139083
0.0752503
-0.0125757
0.0732196
-0.0111308
0.0714213
-0.00961714
0.0698691
-0.00807909
0.068569
-0.00655892
0.0675197
-0.00509454
0.0667137
-0.00371774
0.0661382
-0.0024533
0.0657767
-0.00131877
0.0656103
-0.000324859
0.0656186
0.000523767
0.0657812
0.00122749
0.0660782
0.00179069
0.0664908
0.00222051
0.0670015
0.00252483
0.067594
0.00271268
0.0682542
0.0028011
0.0029022
0.0689875
0.100157
-0.0127417
-0.102488
0.0977293
-0.0134512
0.0952039
-0.0141168
0.0925924
-0.0146226
0.0899148
-0.0149426
0.0871954
-0.0150653
0.0844613
-0.0149827
0.0817437
-0.0146911
0.0790765
-0.0141934
0.0764949
-0.0134996
0.0740342
-0.0126276
0.0717278
-0.0116019
0.0696053
-0.0104533
0.0676913
-0.00921677
0.0660038
-0.00792964
0.0645538
-0.00662912
0.0633452
-0.00535029
0.0623749
-0.00412427
0.0616342
-0.002977
0.0611094
-0.00192856
0.0607838
-0.000993088
0.060638
-0.000179129
0.0606521
0.000509669
0.0608058
0.00107376
0.0610797
0.00151688
0.0614552
0.00184499
0.0619154
0.00206463
0.0624445
0.00218354
0.063029
0.00221657
0.00225774
0.0636735
0.0929778
-0.0104896
-0.09523
0.0906309
-0.0111042
0.0881876
-0.0116735
0.0856633
-0.0120983
0.0830794
-0.0123588
0.0804605
-0.0124464
0.0778345
-0.0123567
0.0752325
-0.0120891
0.0726878
-0.0116486
0.0702342
-0.0110461
0.0679053
-0.0102986
0.0657318
-0.00942837
0.0637407
-0.00846221
0.0619538
-0.0074298
0.0603862
-0.00636208
0.0590466
-0.0052895
0.0579366
-0.00424035
0.0570519
-0.00323949
0.0563823
-0.00230749
0.0559139
-0.00146017
0.0556295
-0.000708631
0.0555099
-5.95679e-05
0.0555354
0.000484202
0.055686
0.000923102
0.0559428
0.00126015
0.0562876
0.00150013
0.056704
0.00164829
0.0571765
0.00171101
0.0576923
0.00170082
0.00169514
0.0582549
0.0853079
-0.00833889
-0.0874586
0.0830622
-0.00885848
0.0807224
-0.00933371
0.0783065
-0.00968236
0.0758367
-0.00988897
0.0733384
-0.00994815
0.0708403
-0.00985853
0.0683732
-0.00962201
0.0659694
-0.00924489
0.0636616
-0.00873825
0.0614807
-0.00811771
0.0594551
-0.00740278
0.0576089
-0.00661599
0.0559608
-0.00578169
0.0545234
-0.00492469
0.0533029
-0.00406897
0.0522991
-0.00323653
0.0515061
-0.00244651
0.0509132
-0.0017146
0.0505059
-0.00105285
0.0502669
-0.000469689
0.0501776
2.97794e-05
0.0502184
0.000443395
0.05037
0.000771466
0.0506139
0.00101629
0.0509325
0.00118153
0.0513096
0.00127116
0.0517304
0.00129024
0.0521822
0.00124895
0.0012094
0.052668
0.0770256
-0.00631535
-0.0790491
0.0749072
-0.00674003
0.0726975
-0.00712404
0.0704156
-0.00740052
0.0680853
-0.00755864
0.065733
-0.00759585
0.0633876
-0.00751313
0.0610796
-0.00731401
0.0588402
-0.00700546
0.0566999
-0.00659793
0.0546873
-0.00610513
0.0528279
-0.00554337
0.0511427
-0.00493081
0.0496475
-0.00428646
0.0483521
-0.00362931
0.0472604
-0.00297733
0.0463707
-0.00234677
0.0456758
-0.00175161
0.0451644
-0.00120325
0.044822
-0.000710416
0.0446316
-0.000279248
0.0445748
8.65056e-05
0.044633
0.000385198
0.0447875
0.00061697
0.0450204
0.000783429
0.0453147
0.000887181
0.0456548
0.000931087
0.0460261
0.000918918
0.0464166
0.000858537
0.000797939
0.046828
0.0679522
-0.00445227
-0.0698153
0.065995
-0.00478275
0.0639485
-0.00507756
0.0618339
-0.00528598
0.0596765
-0.00540122
0.0575035
-0.00542288
0.0553438
-0.00535338
0.0532269
-0.00519707
0.0511822
-0.00496075
0.0492378
-0.00465361
0.0474196
-0.00428693
0.0457498
-0.0038735
0.044246
-0.00342704
0.042921
-0.00296147
0.041782
-0.0024903
0.0408307
-0.00202606
0.0400638
-0.00157989
0.0394735
-0.00116127
0.0390481
-0.000777886
0.0387733
-0.000435633
0.0386328
-0.00013871
0.0386091
0.000110249
0.0386843
0.000309993
0.0388408
0.000460478
0.0390615
0.000562676
0.0393304
0.000618266
0.0396324
0.000629131
0.0399534
0.000597915
0.0402816
0.000530276
0.000461211
0.0406184
0.0578086
-0.00279365
-0.0594672
0.0560572
-0.00303135
0.0542198
-0.00324023
0.0523196
-0.0033857
0.0503825
-0.00346417
0.0484361
-0.00347648
0.0465083
-0.00342559
0.044627
-0.00331577
0.0428192
-0.00315292
0.0411099
-0.00294436
0.0395215
-0.00269852
0.0380726
-0.00242455
0.0367773
-0.00213178
0.0356453
-0.0018294
0.034681
-0.001526
0.0338843
-0.00122937
0.0332507
-0.000946283
0.0327718
-0.000682436
0.0324364
-0.000442445
0.0322306
-0.000229883
0.0321393
-4.73515e-05
0.0321461
0.000103409
0.0322346
0.000221472
0.0323885
0.000306617
0.0325919
0.000359264
0.0328299
0.000380305
0.0330882
0.000370823
0.0333536
0.000332516
0.0336148
0.00026905
0.000203485
0.0338725
0.046131
-0.00140439
-0.0475203
0.0446534
-0.00155374
0.043096
-0.00168282
0.0414824
-0.00177213
0.0398386
-0.00182033
0.0381907
-0.00182857
0.0365646
-0.0017995
0.0349854
-0.0017366
0.0334767
-0.0016442
0.0320596
-0.00152729
0.0307523
-0.00139123
0.0295693
-0.00124148
0.0285209
-0.00108338
0.0276134
-0.000921895
0.0268489
-0.0007615
0.0262256
-0.000606105
0.0257383
-0.000459026
0.0253789
-0.000323016
0.0251368
-0.000200317
0.0249996
-9.27171e-05
0.0249538
-1.54813e-06
0.024985
7.22016e-05
0.0250787
0.000127849
0.0252202
0.000165075
0.0253956
0.000183895
0.0255913
0.000184585
0.0257945
0.000167591
0.0259932
0.000133847
0.0261769
8.533e-05
3.44198e-05
0.026346
0.0320918
-0.000398902
-0.0330973
0.0310079
-0.000469849
0.0298548
-0.000529717
0.0286534
-0.00057074
0.0274265
-0.000593408
0.026197
-0.000599073
0.0249871
-0.000589653
0.0238178
-0.000567259
0.0227077
-0.000534146
0.0216731
-0.000492633
0.0207269
-0.000445004
0.0198788
-0.000393407
0.0191352
-0.000339782
0.0184991
-0.000285822
0.0179706
-0.000232953
0.0175468
-0.000182357
0.0172228
-0.000134998
0.0169914
-9.16639e-05
0.0168441
-5.3017e-05
0.0167711
-1.97212e-05
0.016762
7.58475e-06
0.0168045
2.97338e-05
0.0168873
4.50034e-05
0.0169988
5.35725e-05
0.0171274
5.52754e-05
0.017262
4.99766e-05
0.0173921
3.75571e-05
0.0175079
1.80036e-05
0.0176016
-8.33563e-06
-3.52818e-05
0.0176713
0.0141557
-0.0145546
0.0136859
0.0131562
0.0125854
0.011992
0.011393
0.0108033
0.010236
0.0097019
0.00920927
0.00876427
0.00837086
0.00803108
0.00774525
0.0075123
0.00732994
0.00719495
0.00710328
0.00705027
0.00703054
0.00703813
0.00706786
0.00711287
0.00716644
0.00722171
0.00727169
0.00730925
0.00732725
0.00731892
0.00728363
0.351225
-0.178773
0.333837
-0.177218
0.317076
-0.174906
0.300819
-0.172324
0.28496
-0.169505
0.269412
-0.16646
0.254121
-0.163203
0.239057
-0.159747
0.224202
-0.1561
0.20955
-0.15227
0.195105
-0.148261
0.180874
-0.144079
0.166872
-0.139725
0.153116
-0.135201
0.139629
-0.130503
0.126435
-0.125626
0.113563
-0.120561
0.101043
-0.115294
0.0889113
-0.109808
0.0772038
-0.10408
0.065963
-0.0980787
0.0552373
-0.0917622
0.0450826
-0.0850753
0.0355653
-0.0779413
0.0267679
-0.0702517
0.0187978
-0.0618453
0.0118049
-0.0524743
0.00601765
-0.041733
0.00183767
-0.0289173
-0.012717
0.334628
-0.162156
0.318167
-0.160756
0.302124
-0.158863
0.286431
-0.156631
0.27103
-0.154104
0.255887
-0.151317
0.240982
-0.148298
0.226303
-0.145068
0.211847
-0.141645
0.197618
-0.13804
0.183623
-0.134267
0.169876
-0.130332
0.156393
-0.126242
0.143191
-0.121999
0.130292
-0.117604
0.117718
-0.113052
0.105495
-0.108338
0.0936499
-0.103449
0.0822124
-0.0983708
0.0712157
-0.0930834
0.0606963
-0.0875594
0.0506966
-0.0817625
0.0412654
-0.075644
0.0324614
-0.0691374
0.024358
-0.0621482
0.0170515
-0.0545388
0.0106769
-0.0460997
0.00543841
-0.0364945
0.00167962
-0.0251585
-0.0110374
0.317358
-0.146419
0.301796
-0.145194
0.28649
-0.143557
0.271431
-0.141572
0.256605
-0.139278
0.242002
-0.136714
0.227619
-0.133915
0.213456
-0.130906
0.199521
-0.127709
0.185822
-0.124342
0.172374
-0.120818
0.159191
-0.117149
0.146292
-0.113342
0.133694
-0.109401
0.121417
-0.105327
0.109484
-0.101119
0.097916
-0.0967698
0.0867387
-0.0922714
0.0759786
-0.0876106
0.065665
-0.0827698
0.0558308
-0.0777252
0.0465135
-0.0724452
0.0377569
-0.0668875
0.0296137
-0.0609943
0.0221502
-0.0546846
0.0154531
-0.0478417
0.00964376
-0.0402904
0.0049031
-0.0317539
0.00152382
-0.0217792
-0.00951353
0.300886
-0.131446
0.286051
-0.130359
0.271388
-0.128894
0.256907
-0.127091
0.242616
-0.124987
0.228526
-0.122624
0.214646
-0.120035
0.200989
-0.117248
0.187568
-0.114288
0.174398
-0.111172
0.161495
-0.107916
0.148877
-0.104531
0.13656
-0.101025
0.124562
-0.0974034
0.112902
-0.0936674
0.101599
-0.089816
0.090674
-0.0858446
0.0801483
-0.0817457
0.0700457
-0.077508
0.0603922
-0.0731163
0.051217
-0.06855
0.0425534
-0.0637816
0.0344407
-0.0587747
0.0269261
-0.0534797
0.0200692
-0.0478277
0.013948
-0.0417205
0.00867044
-0.0350128
0.00439469
-0.0274781
0.00136772
-0.0187523
-0.00814581
0.285161
-0.117108
0.270923
-0.116121
0.256815
-0.114786
0.242859
-0.113135
0.229076
-0.111204
0.215486
-0.109034
0.202108
-0.106657
0.188961
-0.104101
0.176061
-0.101388
0.163427
-0.0985378
0.151075
-0.0955642
0.139023
-0.0924786
0.127287
-0.0892889
0.115883
-0.086
0.10483
-0.0826137
0.0941429
-0.0791293
0.0838414
-0.0755431
0.0739445
-0.0718488
0.0644731
-0.0680366
0.0554502
-0.0640934
0.0469017
-0.0600015
0.0388573
-0.0557372
0.0313521
-0.0512695
0.0244284
-0.046556
0.0181396
-0.0415389
0.0125553
-0.0361362
0.00777054
-0.030228
0.00392224
-0.0236298
0.0012178
-0.0160478
-0.00692801
0.270158
-0.103308
0.256441
-0.102404
0.242837
-0.101183
0.229377
-0.0996739
0.216087
-0.0979147
0.202994
-0.0959407
0.19012
-0.0937829
0.177486
-0.0914669
0.165111
-0.089014
0.153015
-0.0864415
0.141214
-0.0837629
0.129724
-0.0809885
0.118561
-0.0781256
0.107739
-0.0751787
0.0972752
-0.0721497
0.087184
-0.069038
0.0774816
-0.0658408
0.0681853
-0.0625524
0.0593134
-0.0591647
0.0508863
-0.0556664
0.0429271
-0.0520423
0.0354623
-0.0482724
0.0285231
-0.0443303
0.0221474
-0.0401804
0.0163829
-0.0357744
0.0112911
-0.0310444
0.00695522
-0.0258922
0.00349311
-0.0201677
0.00107906
-0.0136338
-0.00584896
0.255881
-0.0899911
0.242644
-0.0891666
0.229519
-0.0880581
0.21654
-0.0866951
0.203738
-0.0851125
0.19114
-0.0833426
0.17877
-0.0814133
0.166651
-0.0793477
0.154802
-0.077165
0.143241
-0.0748803
0.131984
-0.0725059
0.121046
-0.0700507
0.110442
-0.0675213
0.100185
-0.0649217
0.0902887
-0.0622536
0.0807673
-0.0595166
0.0716348
-0.0567082
0.0629063
-0.0538239
0.0545981
-0.0508565
0.0467283
-0.0477966
0.0393174
-0.0446314
0.0323889
-0.041344
0.0259708
-0.0379122
0.020097
-0.0343066
0.0148097
-0.030487
0.0101632
-0.0263979
0.00623006
-0.0219591
0.00311153
-0.0170492
0.000954683
-0.0114769
-0.00489427
0.242341
-0.0771334
0.229567
-0.0763926
0.216912
-0.0754029
0.204411
-0.0741935
0.192094
-0.0727962
0.179991
-0.0712394
0.168126
-0.0695477
0.156519
-0.0677412
0.14519
-0.0658363
0.134156
-0.0638463
0.123432
-0.0617816
0.113031
-0.05965
0.102967
-0.0574572
0.0932518
-0.0552064
0.0838973
-0.0528991
0.0749159
-0.0505352
0.0663201
-0.0481125
0.0581234
-0.0456271
0.05034
-0.0430732
0.0429862
-0.0404428
0.0360802
-0.0377253
0.0296429
-0.0349067
0.0236993
-0.0319686
0.0182796
-0.0288869
0.0134212
-0.0256287
0.00917211
-0.0221487
0.00559549
-0.0183825
0.0027785
-0.0142322
0.000846024
-0.00954445
-0.00404825
0.229554
-0.0647269
0.217239
-0.0640775
0.205051
-0.0632157
0.193027
-0.0621692
0.181197
-0.0609659
0.169588
-0.0596303
0.158223
-0.0581831
0.147123
-0.0566414
0.136306
-0.055019
0.125787
-0.0533271
0.115579
-0.0515743
0.105696
-0.0497671
0.0961494
-0.0479101
0.0869492
-0.0460062
0.0781067
-0.0440566
0.0696326
-0.0420611
0.061538
-0.0400179
0.0538348
-0.0379239
0.0465358
-0.0357742
0.0396554
-0.0335624
0.0332099
-0.0312797
0.0272179
-0.0289147
0.0217019
-0.0264526
0.0166888
-0.0238737
0.0122117
-0.0211516
0.00831309
-0.0182501
0.00504823
-0.0151176
0.0024926
-0.0116766
0.000753095
-0.00780494
-0.00329516
0.217522
-0.052774
0.205668
-0.0522242
0.193952
-0.0514989
0.182406
-0.0506233
0.171061
-0.0496209
0.159943
-0.0485119
0.149073
-0.0473134
0.138471
-0.0460392
0.128152
-0.0447007
0.118132
-0.0433068
0.108422
-0.0418646
0.0990345
-0.0403792
0.0899788
-0.0388544
0.0812651
-0.0372925
0.0729029
-0.0356944
0.0649018
-0.03406
0.0572718
-0.0323879
0.0500234
-0.0306754
0.043168
-0.0289189
0.0367186
-0.027113
0.0306896
-0.0252508
0.0250981
-0.0233232
0.019964
-0.0213185
0.0153114
-0.0192211
0.01117
-0.0170103
0.00757742
-0.0146575
0.00458234
-0.0121225
0.00225071
-0.00934495
0.000675052
-0.00622928
-0.0026201
0.206237
-0.0412808
0.19485
-0.0408374
0.183607
-0.0402555
0.17254
-0.0395562
0.161677
-0.0387586
0.151044
-0.0378787
0.14066
-0.0369297
0.130544
-0.0359225
0.120709
-0.0348659
0.111169
-0.0337669
0.101935
-0.0326309
0.093018
-0.0314619
0.0844265
-0.0302628
0.0761693
-0.0290354
0.0682553
-0.0277804
0.0606929
-0.0264976
0.053491
-0.025186
0.0466592
-0.0238436
0.0402077
-0.0224674
0.0341483
-0.0210535
0.0284939
-0.0195964
0.02326
-0.0180893
0.0184647
-0.0165231
0.0141295
-0.014886
0.0102814
-0.0131621
0.00695378
-0.0113299
0.00419011
-0.00935888
0.00204863
-0.00720347
0.00061053
-0.00479118
-0.00200957
0.195675
-0.030254
0.184759
-0.0299213
0.17399
-0.0294865
0.1634
-0.0289661
0.153016
-0.0283741
0.142859
-0.0277223
0.13295
-0.0270206
0.123304
-0.0262767
0.113936
-0.0254972
0.104856
-0.0246871
0.0960754
-0.0238504
0.0876033
-0.0229899
0.0794483
-0.0221077
0.0716181
-0.0212052
0.0641205
-0.0202828
0.0569634
-0.0193405
0.0501547
-0.0183773
0.0437032
-0.017392
0.0376182
-0.0163824
0.0319102
-0.0153456
0.0265914
-0.0142776
0.0216756
-0.0131735
0.0171793
-0.0120268
0.0131223
-0.010829
0.00952883
-0.0095687
0.00642935
-0.00823042
0.00386288
-0.00679242
0.00188158
-0.00522217
0.000557907
-0.0034675
-0.00145167
0.185801
-0.019698
0.175357
-0.0194778
0.165061
-0.0191908
0.154944
-0.0188484
0.145029
-0.0184596
0.135339
-0.0180322
0.125891
-0.0175725
0.1167
-0.0170857
0.107779
-0.016576
0.0991381
-0.0160465
0.0907876
-0.0154999
0.0827357
-0.014938
0.0749902
-0.0143622
0.0675583
-0.0137733
0.0604471
-0.0131716
0.0536637
-0.0125571
0.0472157
-0.0119293
0.0411108
-0.0112872
0.0353577
-0.0106294
0.0299662
-0.00995405
0.0249473
-0.0092587
0.0203139
-0.0085401
0.0160812
-0.00779406
0.0122673
-0.0070151
0.00889453
-0.00619595
0.00599077
-0.00532666
0.00359166
-0.00439331
0.00174461
-0.00337512
0.000515482
-0.00223837
-0.000936185
0.176566
-0.00961395
0.166594
-0.00950538
0.156767
-0.0093642
0.147115
-0.00919601
0.137661
-0.00900531