/*--------------------------------*- C++ -*----------------------------------*\
  =========                 |
  \\      /  F ield         | OpenFOAM: The Open Source CFD Toolbox
   \\    /   O peration     | Website:  https://openfoam.org
    \\  /    A nd           | Version:  12
     \\/     M anipulation  |
\*---------------------------------------------------------------------------*/
FoamFile
{
    format      ascii;
    class       volScalarField;
    location    "240";
    object      pMean;
}
// * * * * * * * * * * * * * * * * * * * * * * * * * * * * * * * * * * * * * //

dimensions      [0 2 -2 0 0 0 0];

internalField   nonuniform List<scalar> 
6750
(
0.00725229
0.00722471
0.00717787
0.00699917
0.00603217
0.00895533
0.00892841
0.00881326
0.00855985
0.0082222
0.0109072
0.0108587
0.0107405
0.0105541
0.0104158
0.0129285
0.0128453
0.0127333
0.0126039
0.0125399
0.0149234
0.0147964
0.014675
0.0145741
0.0145484
0.0168122
0.016637
0.0164957
0.0164062
0.0163993
0.0185462
0.0183216
0.0181567
0.018072
0.0180756
0.0200959
0.0198226
0.0196343
0.0195524
0.0195634
0.0214429
0.0211234
0.0209136
0.0208345
0.0208512
0.022577
0.0222153
0.0219871
0.0219111
0.0219325
0.0234953
0.0230968
0.0228539
0.0227814
0.0228063
0.0242018
0.0237728
0.0235193
0.0234505
0.0234778
0.0247068
0.0242532
0.0239941
0.0239286
0.0239573
0.0250253
0.024553
0.0242944
0.0242306
0.0242593
0.0251716
0.0246936
0.0244404
0.0243745
0.0244014
0.0251718
0.0246938
0.0244405
0.0243746
0.0244016
0.0250258
0.0245535
0.0242948
0.0242311
0.0242598
0.0247075
0.024254
0.0239949
0.0239293
0.0239581
0.0242028
0.0237738
0.0235204
0.0234515
0.0234789
0.0234966
0.0230981
0.0228552
0.0227828
0.0228077
0.0225785
0.0222169
0.0219887
0.0219127
0.0219341
0.0214447
0.0211252
0.0209154
0.0208363
0.0208531
0.0200979
0.0198247
0.0196364
0.0195545
0.0195655
0.0185484
0.0183238
0.018159
0.0180743
0.0180779
0.0168145
0.0166394
0.0164981
0.0164086
0.0164018
0.0149259
0.0147989
0.0146775
0.0145766
0.014551
0.0129311
0.0128479
0.0127359
0.0126065
0.0125426
0.0109098
0.0108613
0.0107432
0.0105568
0.0104185
0.00895796
0.00893105
0.00881592
0.00856251
0.00822478
0.00725491
0.00722735
0.00718052
0.0070018
0.00603473
0.000265855
0.000792002
0.00213401
0.00311488
0.00381843
0.00437622
0.00481602
0.00515342
0.00541518
0.00560745
0.00571631
0.0057991
0.00583487
0.00582136
0.00575663
0.00563563
0.00545328
0.00520854
0.00490053
0.00452689
0.00408515
0.00365933
0.00319875
0.00271746
0.00223251
0.00175438
0.00129135
0.000860875
0.000473212
5.70962e-06
0.00398362
0.00469614
0.00542131
0.00577242
0.00596671
0.00608565
0.00613292
0.00612092
0.00607411
0.00598389
0.00584209
0.00573158
0.0056236
0.00552217
0.00542553
0.00532419
0.00520472
0.00505413
0.00485983
0.004616
0.00433246
0.00394808
0.00353795
0.00308983
0.00261044
0.0021096
0.00159429
0.00108137
0.00061841
0.000154553
0.00642311
0.00658227
0.00686982
0.00700135
0.00706252
0.00706573
0.00700113
0.00688077
0.00672011
0.00648643
0.00620696
0.00594351
0.00566872
0.00539388
0.00512483
0.00486149
0.00460027
0.00433521
0.00405944
0.00376661
0.00345307
0.00311968
0.00276545
0.00238992
0.00199625
0.00158861
0.00116671
0.000740841
0.000392647
0.000157842
0.00790657
0.00770027
0.00782351
0.00789568
0.00790075
0.00783839
0.00770473
0.00751467
0.00727173
0.00692333
0.00654119
0.00614666
0.00572391
0.00528934
0.00485483
0.00442872
0.00401676
0.00362176
0.00324405
0.00288145
0.00253107
0.0021953
0.00186744
0.00154335
0.00122116
0.000899401
0.000570518
0.000236508
9.22467e-06
4.61684e-05
0.00906595
0.00873204
0.00878422
0.00879496
0.00872622
0.00858482
0.00837153
0.00809853
0.0077583
0.00729939
0.0068133
0.00629223
0.00573477
0.00516041
0.00458521
0.00402327
0.0034865
0.00298356
0.00251953
0.00209571
0.00171059
0.0013619
0.00104438
0.000751547
0.000477816
0.000217693
-4.22561e-05
-0.000308016
-0.000442422
-0.000151792
0.0100976
0.00973396
0.00972947
0.00966853
0.00952173
0.00930023
0.00900522
0.00864446
0.00819767
0.00763427
0.00704055
0.00639695
0.00571293
0.00501027
0.00430847
0.00362603
0.00297925
0.00238078
0.00183887
0.00135711
0.000934898
0.000568554
0.000252065
-2.25254e-05
-0.000263058
-0.000477726
-0.000684774
-0.000896341
-0.000954315
-0.000434138
0.0110336
0.0106791
0.0106221
0.0104915
0.0102716
0.00997368
0.00959955
0.00915184
0.00859469
0.00793428
0.00723284
0.00647166
0.00566757
0.00484429
0.00402447
0.00323017
0.00248115
0.00179315
0.00117683
0.000637454
0.000175213
-0.000213802
-0.000536612
-0.000802372
-0.00102046
-0.00120112
-0.00136668
-0.00153359
-0.00152466
-0.000800747
0.0118926
0.011571
0.0114675
0.0112707
0.0109809
0.0106083
0.0101567
0.00962149
0.0089547
0.00820328
0.00739447
0.0065199
0.00560113
0.00466351
0.00373242
0.0028329
0.00198751
0.00121445
0.000526321
-7.03102e-05
-0.000574597
-0.000990492
-0.00132568
-0.00159024
-0.00179469
-0.00195108
-0.00208493
-0.00221588
-0.00214834
-0.00124824
0.0126946
0.0124223
0.0122767
0.0120151
0.0116565
0.0112106
0.0106814
0.0100542
0.00928532
0.00844332
0.00752808
0.00654374
0.00551468
0.00446775
0.00343078
0.00243133
0.00149426
0.000639755
-0.000118043
-0.000771513
-0.00131929
-0.00176534
-0.00211779
-0.00238744
-0.00258565
-0.00272595
-0.00283672
-0.0029392
-0.00282028
-0.00177177
0.013455
0.0132422
0.0130572
0.0127313
0.0123043
0.0117866
0.0111784
0.0104531
0.0095918
0.00865615
0.00763627
0.00654521
0.00540921
0.00425675
0.00311789
0.00202237
0.000997003
6.36027e-05
-0.000762426
-0.00147262
-0.00206521
-0.00254414
-0.0029179
-0.00319778
-0.00339598
-0.00352704
-0.00362227
-0.00370284
-0.00353832
-0.00236677
0.0141851
0.0140381
0.0138159
0.0134252
0.0129288
0.0123399
0.0116515
0.0108251
0.00987741
0.0088454
0.00772204
0.00652621
0.00528549
0.00403006
0.00279201
0.00160296
0.000491432
-0.000519362
-0.00141297
-0.00218024
-0.00281905
-0.00333337
-0.00373192
-0.00402645
-0.00422972
-0.0043574
-0.0044434
-0.00450762
-0.00430222
-0.00302981
0.014894
0.0148173
0.0145595
0.014103
0.0135363
0.0128758
0.0121031
0.0111773
0.0101448
0.00901431
0.00778794
0.00648829
0.00514402
0.00378704
0.00245127
0.00117004
-2.66241e-05
-0.0011143
-0.00207562
-0.00290084
-0.00358755
-0.00413971
-0.00456625
-0.00487932
-0.00509214
-0.0052215
-0.00530356
-0.00535625
-0.00511396
-0.00375902
0.0155908
0.015587
0.0152952
0.0147718
0.0141347
0.0133987
0.0125347
0.0115177
0.0103963
0.00916566
0.00783617
0.00643268
0.00498502
0.0035268
0.00209365
0.000720461
-0.000561396
-0.0017264
-0.00275635
-0.00364099
-0.00437763
-0.00497024
-0.00542795
-0.00576318
-0.00598959
-0.0061251
-0.00620805
-0.00625349
-0.00597751
-0.00455454
0.016284
0.0163543
0.0160301
0.0154384
0.0147295
0.0139151
0.0129539
0.0118507
0.0106351
0.0093024
0.00786878
0.00636041
0.00480847
0.00324821
0.00171689
0.000250848
-0.00111731
-0.00236102
-0.00346135
-0.00440753
-0.00519665
-0.00583264
-0.00632479
-0.00668583
-0.00692972
-0.00707558
-0.00716387
-0.00720588
-0.00689886
-0.00541875
0.0169808
0.017129
0.0167733
0.0161115
0.015328
0.0144292
0.0133697
0.0121798
0.0108649
0.00942767
0.00788773
0.00627234
0.00461409
0.00294986
0.00131843
-0.000242494
-0.00169911
-0.00302392
-0.00419726
-0.00520787
-0.00605259
-0.00673533
-0.00726552
-0.00765609
-0.00792141
-0.00808177
-0.00817967
-0.00822189
-0.00788613
-0.00635662
0.0176888
0.0179227
0.0175369
0.016803
0.0159378
0.0149445
0.0137919
0.0125087
0.0110897
0.00954449
0.00789483
0.00616907
0.00440129
0.00262994
0.000895257
-0.000763741
-0.00231212
-0.00372145
-0.00497136
-0.00605011
-0.0069543
-0.00768777
-0.00826006
-0.00868424
-0.00897514
-0.00915429
-0.00926611
-0.00931213
-0.00894975
-0.00737592
0.0184182
0.0187483
0.0183331
0.0175225
0.0165681
0.0154713
0.0142273
0.0128423
0.0113138
0.00965591
0.0078918
0.006051
0.00416914
0.00228619
0.000443795
-0.00131774
-0.00296238
-0.00446078
-0.00579188
-0.00694347
-0.00791184
-0.00870076
-0.00931986
-0.00978234
-0.0101033
-0.0103059
-0.0104362
-0.0104898
-0.0101028
-0.0084877
0.0191862
0.0196195
0.0191763
0.018279
0.0172245
0.0160242
0.0146821
0.0131867
0.011542
0.00976515
0.00788027
0.00591824
0.00391622
0.00191569
-4.03247e-05
-0.00191025
-0.00365699
-0.00525029
-0.0066684
-0.00789858
-0.00893686
-0.00978688
-0.0104583
-0.0109645
-0.0113208
-0.0115519
-0.0117059
-0.0117713
-0.0113618
-0.00970681
0.0200146
0.0205488
0.0200792
0.0190877
0.0179192
0.0166153
0.0151631
0.0135482
0.0117795
0.00987556
0.00786177
0.0057705
0.00364046
0.00151464
-0.000562561
-0.00254835
-0.00440453
-0.00609999
-0.00761226
-0.0089281
-0.0100432
-0.0109611
-0.0116914
-0.0122477
-0.0126455
-0.0129113
-0.0130946
-0.0131766
-0.0127469
-0.0110527
0.0209236
0.0215587
0.0210615
0.019963
0.0186712
0.0172554
0.0156807
0.0139357
0.0120324
0.00999081
0.00783767
0.00560693
0.00333889
0.00107802
-0.0011299
-0.00324085
-0.0052156
-0.00702214
-0.00863732
-0.0100474
-0.0112477
-0.0122415
-0.0130386
-0.0136525
-0.0140991
-0.0144065
-0.0146261
-0.0147304
-0.0142837
-0.0125505
0.0219417
0.0226806
0.0221462
0.0209228
0.019504
0.0179599
0.0162478
0.0143591
0.0123076
0.0101148
0.00780901
0.00542584
0.00300719
0.000599031
-0.00175148
-0.00399912
-0.00610365
-0.0080322
-0.00976092
-0.0112756
-0.0125711
-0.0136508
-0.0145241
-0.0152046
-0.0157088
-0.0160665
-0.0163309
-0.0164645
-0.0160048
-0.0142332
0.0231109
0.0239427
0.0233588
0.0220021
0.0204413
0.018748
0.0168803
0.0148303
0.012613
0.0102516
0.00777622
0.00522417
0.00263902
6.82646e-05
-0.00243959
-0.00483817
-0.00708623
-0.00915011
-0.0110053
-0.0126371
-0.0140401
-0.0152174
-0.0161785
-0.0169368
-0.0175092
-0.0179275
-0.0182466
-0.0184185
-0.0179516
-0.0161435
0.0244822
0.025394
0.024745
0.023242
0.0215124
0.0196449
0.0175981
0.0153637
0.0129577
0.0104053
0.00773862
0.00499675
0.002225
-0.000527593
-0.0032112
-0.00577834
-0.00818688
-0.0104024
-0.0123999
-0.0141642
-0.0156896
-0.016979
-0.0180418
-0.0188914
-0.0195453
-0.020037
-0.0204232
-0.0206451
-0.0201793
-0.0183387
0.0261301
0.0271024
0.0263702
0.0246899
0.0227571
0.0206834
0.0184266
0.0159771
0.0133523
0.0105797
0.00769352
0.00473489
0.00175089
-0.0012079
-0.00409037
-0.00684806
-0.00943809
-0.0118255
-0.0139848
-0.0159004
-0.0175665
-0.0189857
-0.0201675
-0.0211252
-0.0218769
-0.022458
-0.0229269
-0.0232134
-0.0227613
-0.0208964
0.0281732
0.0291685
0.0283148
0.0264112
0.024231
0.0219081
0.0193992
0.0166931
0.0138092
0.0107775
0.00763466
0.00442401
0.00119453
-0.0020017
-0.00511244
-0.00808845
-0.0108863
-0.0134708
-0.0158162
-0.0179067
-0.0197363
-0.0213076
-0.02263
-0.0237168
-0.0245867
-0.0252777
-0.0258488
-0.0262187
-0.0257985
-0.0239251
0.030761
0.0317324
0.0306944
0.028504
0.0260142
0.0233819
0.0205618
0.0175417
0.014343
0.010999
0.00754916
0.00403933
0.000520378
-0.00295419
-0.0063313
-0.00956132
-0.0126008
-0.0154145
-0.0179769
-0.0202721
-0.0222943
-0.024046
-0.0255364
-0.026779
-0.027793
-0.0286189
-0.0293176
-0.0297956
-0.0294349
-0.0275812
0.0341693
0.0350097
0.0336867
0.0311165
0.0282281
0.025198
0.0219801
0.0185622
0.0149689
0.0112374
0.00741042
0.00353664
-0.000331195
-0.00413859
-0.00783228
-0.0113631
-0.0146882
-0.0177734
-0.0205935
-0.0231335
-0.0253874
-0.0273576
-0.0290533
-0.0304876
-0.0316803
-0.0326737
-0.03353
-0.0341481
-0.0338885
-0.0321055
0.0388458
0.0393401
0.0375496
0.034456
0.0310363
0.027478
0.0237356
0.0197989
0.0156969
0.0114717
0.00717012
0.00284379
-0.0014529
-0.00566519
-0.00974077
-0.0136322
-0.0172991
-0.0207092
-0.0238393
-0.0266754
-0.0292123
-0.0314527
-0.0334049
-0.0350821
-0.036504
-0.0377136
-0.0387726
-0.0395791
-0.0394982
-0.0378937
0.0456944
0.0454572
0.0429055
0.0390832
0.0349271
0.0306148
0.0261121
0.0214229
0.0165882
0.0116596
0.00669179
0.00174068
-0.00313781
-0.00789013
-0.0124672
-0.0168261
-0.0209311
-0.0247546
-0.0282761
-0.0314827
-0.0343728
-0.036955
-0.0392271
-0.041201
-0.0428959
-0.0443509
-0.045623
-0.0466267
-0.0468044
-0.045576
0.0577518
0.0557915
0.0516141
0.0464938
0.0411069
0.0355508
0.0298193
0.0239479
0.0179959
0.0120256
0.00609606
0.000262623
-0.00542444
-0.0109211
-0.01619
-0.0212009
-0.0259296
-0.0303576
-0.0344728
-0.0382677
-0.0417338
-0.0448632
-0.0476707
-0.0501607
-0.0523418
-0.0542385
-0.0558976
-0.0573032
-0.0581095
-0.0576629
0.00374665
0.00475557
0.00652478
0.00795119
0.00916634
0.0103076
0.0114056
0.0124684
0.0135054
0.0145262
0.0155394
0.0165535
0.017578
0.0186224
0.0196971
0.0208142
0.0219886
0.0232385
0.0245849
0.0260524
0.0276728
0.0294889
0.0315541
0.0339409
0.0367486
0.0401248
0.0442688
0.0494354
0.0558345
0.0642394
0.00811389
0.00915432
0.0103345
0.0113333
0.0122378
0.0131083
0.0139559
0.014785
0.0156031
0.0164182
0.0172385
0.018072
0.0189275
0.0198141
0.0207422
0.021724
0.0227743
0.0239113
0.0251565
0.0265371
0.0280885
0.0298573
0.0319053
0.0343178
0.0372145
0.0407718
0.045243
0.0509949
0.0585138
0.0686224
0.0105561
0.0114875
0.0123948
0.0132138
0.0140138
0.0148122
0.0156065
0.016398
0.0171918
0.0179939
0.0188108
0.0196495
0.0205177
0.0214242
0.022379
0.0233944
0.0244852
0.0256699
0.0269711
0.0284178
0.030048
0.0319119
0.0340773
0.0366382
0.0397281
0.0435403
0.0483606
0.0546117
0.0629462
0.0742796
0.0127022
0.013524
0.0143162
0.0150545
0.0157894
0.0165318
0.0172812
0.0180409
0.018816
0.0196125
0.0204364
0.0212945
0.0221944
0.0231447
0.0241559
0.0252405
0.0264138
0.0276949
0.0291077
0.0306829
0.0324608
0.0344946
0.0368565
0.0396462
0.0430046
0.0471346
0.0523358
0.0590445
0.0680023
0.0801575
0.0147064
0.0154335
0.0161346
0.0168004
0.0174741
0.0181665
0.0188789
0.0196144
0.0203775
0.0211736
0.0220082
0.0228879
0.0238202
0.0248139
0.0258797
0.0270306
0.0282827
0.029656
0.0311757
0.0328744
0.0347945
0.0369921
0.039543
0.0425515
0.0461642
0.0505909
0.0561406
0.0632576
0.0727652
0.08566
0.0165384
0.0171809
0.0178038
0.0184084
0.0190335
0.0196887
0.0203752
0.0210954
0.0218536
0.0226544
0.0235032
0.0244064
0.0253712
0.0264068
0.0275239
0.028736
0.0300597
0.0315158
0.0331306
0.0349382
0.0369827
0.0393226
0.0420368
0.0452332
0.049063
0.0537423
0.0595885
0.0670575
0.0770528
0.0906483
0.0181931
0.0187596
0.0193159
0.0198703
0.0204572
0.0210844
0.0217526
0.0224639
0.0232221
0.0240315
0.0248972
0.0258251
0.0268227
0.0278989
0.0290648
0.030334
0.0317237
0.0332552
0.0349558
0.0368606
0.0390151
0.0414797
0.0443355
0.0476933
0.0517082
0.0566013
0.0626981
0.0704665
0.0808761
0.0950932
0.0196646
0.0201625
0.0206616
0.0211748
0.0217315
0.0223376
0.0229932
0.0237002
0.0244617
0.0252818
0.0261651
0.0271176
0.0281465
0.0292608
0.0304716
0.031793
0.0332422
0.0348412
0.0366181
0.0386086
0.0408595
0.0434325
0.0464105
0.0499066
0.0540787
0.0591523
0.0654598
0.0734799
0.0842298
0.0989686
0.0209436
0.0213801
0.0218305
0.0223103
0.0228436
0.023434
0.0240813
0.024787
0.0255537
0.0263851
0.0272857
0.0282611
0.0293186
0.0304671
0.0317178
0.033085
0.0345862
0.0362439
0.0380864
0.0401505
0.0424836
0.0451486
0.0482296
0.0518416
0.0561449
0.0613681
0.0678496
0.0760773
0.0870996
0.102259
0.022023
0.0224056
0.0228156
0.0232692
0.0237845
0.0243635
0.0250056
0.0257118
0.0264845
0.0273268
0.0282431
0.0292389
0.0303212
0.0314992
0.032784
0.0341901
0.0357351
0.037442
0.0393394
0.0414645
0.0438656
0.0466062
0.0497716
0.0534781
0.0578878
0.0632318
0.0698533
0.0782478
0.089479
0.104975
0.0229002
0.0232371
0.0236147
0.0240482
0.0245502
0.0251212
0.0257601
0.0264678
0.0272462
0.0280983
0.0290281
0.030041
0.031144
0.0323463
0.0336591
0.0350967
0.0366773
0.0384238
0.0403653
0.0425393
0.0449946
0.0477954
0.0510276
0.0548086
0.0593018
0.0647401
0.0714708
0.0799944
0.0913783
0.107143
0.0235777
0.0238779
0.0242308
0.0246496
0.0251421
0.0257075
0.0263447
0.0270542
0.0278376
0.0286976
0.0296382
0.0306647
0.0317841
0.0330053
0.0343398
0.0358019
0.0374099
0.0391868
0.041162
0.0433734
0.0458699
0.0487163
0.051999
0.0558362
0.0603923
0.0659012
0.0727134
0.0813327
0.0928229
0.108794
0.0240636
0.0243365
0.0246719
0.0250806
0.0255667
0.0261285
0.0267648
0.0274758
0.0282631
0.0291292
0.0300778
0.0311143
0.0322455
0.0334804
0.0348305
0.0363102
0.0379379
0.0397366
0.0417359
0.0439738
0.0464997
0.0493784
0.052697
0.0565738
0.0611742
0.0667326
0.0736021
0.0822874
0.0938467
0.109969
0.0243705
0.0246256
0.0249501
0.0253526
0.0258349
0.0263945
0.0270304
0.0277427
0.0285326
0.0294027
0.0303565
0.0313994
0.0325382
0.0337819
0.035142
0.036633
0.0382731
0.0400856
0.0421003
0.044355
0.0468995
0.0497987
0.0531399
0.0570417
0.0616699
0.0672594
0.074165
0.0828904
0.094486
0.110717
0.0245148
0.0247612
0.0250805
0.0254802
0.0259607
0.0265195
0.0271553
0.0278682
0.0286595
0.0295314
0.0304878
0.0315338
0.0326763
0.0339243
0.0352892
0.0367855
0.0384316
0.0402508
0.0422727
0.0445356
0.0470889
0.0499979
0.0533498
0.0572637
0.0619051
0.0675093
0.0744322
0.083176
0.0947823
0.11108
0.0245149
0.0247614
0.0250807
0.0254804
0.0259609
0.0265197
0.0271555
0.0278684
0.0286596
0.0295316
0.030488
0.0315339
0.0326764
0.0339244
0.0352893
0.0367856
0.0384317
0.0402508
0.0422728
0.0445356
0.0470889
0.049998
0.0533499
0.0572638
0.0619052
0.0675093
0.0744322
0.083176
0.0947824
0.11108
0.024371
0.0246261
0.0249506
0.0253531
0.0258353
0.026395
0.0270309
0.0277432
0.0285331
0.0294031
0.0303569
0.0313998
0.0325386
0.0337823
0.0351424
0.0366333
0.0382734
0.0400859
0.0421005
0.0443553
0.0468997
0.0497989
0.0531401
0.057042
0.0616702
0.0672596
0.0741651
0.0828905
0.0944862
0.110717
0.0240644
0.0243373
0.0246727
0.0250814
0.0255675
0.0261292
0.0267655
0.0274766
0.0282638
0.0291299
0.0300785
0.0311149
0.0322461
0.033481
0.034831
0.0363107
0.0379383
0.039737
0.0417363
0.0439742
0.0465
0.0493788
0.0526974
0.0565743
0.0611746
0.066733
0.0736023
0.0822875
0.093847
0.109969
0.0235788
0.023879
0.0242319
0.0246507
0.0251432
0.0257086
0.0263457
0.0270552
0.0278385
0.0286986
0.0296391
0.0306656
0.0317849
0.0330061
0.0343405
0.0358026
0.0374105
0.0391874
0.0411626
0.0433739
0.0458704
0.0487168
0.0519996
0.0558368
0.0603928
0.0659017
0.0727138
0.081333
0.0928233
0.108794
0.0229016
0.0232385
0.0236161
0.0240496
0.0245516
0.0251225
0.0257614
0.0264691
0.0272474
0.0280995
0.0290292
0.030042
0.0311451
0.0323473
0.03366
0.0350976
0.0366782
0.0384246
0.040366
0.04254
0.0449953
0.047796
0.0510282
0.0548092
0.0593025
0.0647408
0.0714714
0.0799949
0.0913789
0.107143
0.0220247
0.0224073
0.0228172
0.0232708
0.0237861
0.0243651
0.0250071
0.0257133
0.0264859
0.0273282
0.0282444
0.0292401
0.0303224
0.0315003
0.0327851
0.0341911
0.0357361
0.0374429
0.0393403
0.0414653
0.0438664
0.046607
0.0497724
0.0534788
0.0578886
0.0632327
0.0698543
0.0782486
0.0894799
0.104976
0.0209455
0.021382
0.0218324
0.0223122
0.0228454
0.0234358
0.024083
0.0247887
0.0255554
0.0263867
0.0272872
0.0282626
0.0293199
0.0304684
0.0317191
0.0330862
0.0345873
0.036245
0.0380875
0.0401515
0.0424845
0.0451495
0.0482304
0.0518424
0.0561458
0.0613692
0.0678509
0.0760786
0.0871007
0.10226
0.0196667
0.0201647
0.0206637
0.0211768
0.0217335
0.0223395
0.0229951
0.023702
0.0244636
0.0252836
0.0261668
0.0271192
0.028148
0.0292622
0.030473
0.0317943
0.0332435
0.0348425
0.0366193
0.0386097
0.0408606
0.0434335
0.0464114
0.0499074
0.0540797
0.0591537
0.0654615
0.0734815
0.0842309
0.0989689
0.0181955
0.018762
0.0193182
0.0198726
0.0204594
0.0210866
0.0217547
0.022466
0.0232241
0.0240335
0.024899
0.0258269
0.0268244
0.0279005
0.0290663
0.0303355
0.0317251
0.0332566
0.0349572
0.0368619
0.0390163
0.0414808
0.0443365
0.0476943
0.0517094
0.0566031
0.0627003
0.0704684
0.0808771
0.0950935
0.0165409
0.0171834
0.0178063
0.0184109
0.0190359
0.0196911
0.0203774
0.0210976
0.0218557
0.0226565
0.0235053
0.0244083
0.0253731
0.0264086
0.0275256
0.0287377
0.0300613
0.0315173
0.0331321
0.0349396
0.036984
0.0393238
0.0420379
0.0452343
0.0490644
0.0537444
0.059591
0.0670597
0.0770539
0.0906484
0.0147089
0.0154361
0.0161371
0.0168029
0.0174766
0.018169
0.0188813
0.0196167
0.0203798
0.0211758
0.0220104
0.02289
0.0238222
0.0248158
0.0258815
0.0270324
0.0282844
0.0296577
0.0311774
0.032876
0.034796
0.0369934
0.0395443
0.0425529
0.0461659
0.0505933
0.0561433
0.0632598
0.0727662
0.0856598
0.0127048
0.0135266
0.0143188
0.0150571
0.015792
0.0165343
0.0172837
0.0180433
0.0188184
0.0196148
0.0204387
0.0212967
0.0221965
0.0231468
0.0241579
0.0252424
0.0264156
0.0276967
0.0291094
0.0306846
0.0324624
0.0344961
0.0368579
0.0396478
0.0430066
0.0471372
0.0523387
0.0590467
0.0680031
0.0801571
0.0105587
0.0114902
0.0123975
0.0132164
0.0140164
0.0148149
0.0156091
0.0164006
0.0171943
0.0179964
0.0188132
0.0196519
0.02052
0.0214264
0.0223812
0.0233965
0.0244872
0.0256718
0.026973
0.0284197
0.0300497
0.0319136
0.034079
0.0366401
0.0397303
0.043543
0.0483633
0.0546134
0.0629467
0.074279
0.00811645
0.00915699
0.0103372
0.011336
0.0122405
0.0131109
0.0139585
0.0147876
0.0156057
0.0164208
0.017241
0.0180745
0.0189299
0.0198164
0.0207444
0.0217261
0.0227764
0.0239133
0.0251585
0.026539
0.0280903
0.0298591
0.0319072
0.0343199
0.037217
0.0407744
0.0452453
0.050996
0.0585139
0.0686219
0.00374925
0.00475831
0.00652752
0.00795387
0.00916898
0.0103102
0.0114082
0.0124709
0.0135079
0.0145287
0.0155418
0.0165559
0.0175803
0.0186247
0.0196993
0.0208163
0.0219906
0.0232404
0.0245868
0.0260542
0.0276745
0.0294907
0.0315559
0.0339432
0.0367511
0.040127
0.0442703
0.0494358
0.0558342
0.0642389
0.0577516
0.0557916
0.0516139
0.0464934
0.0411064
0.0355504
0.0298188
0.0239472
0.0179951
0.0120244
0.00609453
0.000260718
-0.00542672
-0.0109237
-0.016193
-0.0212041
-0.0259332
-0.0303613
-0.0344767
-0.0382718
-0.041738
-0.0448674
-0.0476748
-0.0501649
-0.052346
-0.0542426
-0.0559016
-0.0573073
-0.0581139
-0.0576674
0.0456939
0.0454566
0.0429049
0.0390828
0.0349268
0.0306145
0.0261116
0.0214221
0.0165871
0.0116582
0.00669004
0.0017386
-0.0031402
-0.00789282
-0.0124702
-0.0168294
-0.0209346
-0.0247584
-0.02828
-0.0314868
-0.034377
-0.0369592
-0.0392314
-0.0412053
-0.0429001
-0.0443551
-0.0456271
-0.0466307
-0.0468084
-0.0455799
0.0388458
0.0393403
0.0375498
0.0344564
0.0310365
0.0274779
0.0237351
0.019798
0.0156957
0.0114701
0.00716826
0.00284164
-0.00145532
-0.00566786
-0.00974369
-0.0136354
-0.0173025
-0.0207129
-0.0238432
-0.0266795
-0.0292166
-0.0314571
-0.0334095
-0.0350867
-0.0365087
-0.0377181
-0.038777
-0.0395834
-0.0395022
-0.0378973
0.0341703
0.0350107
0.0336875
0.031117
0.0282281
0.0251976
0.0219793
0.018561
0.0149673
0.0112355
0.00740832
0.00353435
-0.000333677
-0.00414126
-0.00783515
-0.0113661
-0.0146915
-0.017777
-0.0205974
-0.0231377
-0.0253919
-0.0273624
-0.0290583
-0.0304927
-0.0316855
-0.0326789
-0.033535
-0.0341528
-0.0338926
-0.0321091
0.0307625
0.0317337
0.0306953
0.0285042
0.0260138
0.023381
0.0205604
0.0175399
0.014341
0.0109968
0.0075468
0.00403685
0.00051779
-0.00295691
-0.00633417
-0.00956438
-0.0126041
-0.0154181
-0.0179807
-0.0202763
-0.0222988
-0.0240509
-0.0255416
-0.0267843
-0.0277985
-0.0286244
-0.029323
-0.0298007
-0.0294395
-0.0275851
0.0281751
0.0291698
0.0283154
0.026411
0.0242302
0.0219067
0.0193974
0.016691
0.0138069
0.010775
0.00763206
0.00442136
0.00119182
-0.00200448
-0.00511533
-0.0080915
-0.0108896
-0.0134743
-0.01582
-0.0179108
-0.0197407
-0.0213124
-0.0226351
-0.0237221
-0.0245922
-0.0252832
-0.0258543
-0.026224
-0.0258035
-0.0239296
0.0261319
0.0271035
0.0263705
0.0246897
0.0227561
0.0206819
0.0184247
0.0159748
0.0133498
0.0105771
0.00769079
0.00473213
0.0017481
-0.00121072
-0.00409327
-0.00685109
-0.0094413
-0.0118289
-0.0139885
-0.0159044
-0.0175707
-0.0189903
-0.0201723
-0.0211302
-0.0218821
-0.0224634
-0.0229323
-0.0232188
-0.0227665
-0.0209013
0.0244835
0.0253949
0.0247453
0.0232416
0.0215114
0.0196434
0.0175962
0.0153614
0.0129552
0.0104027
0.00773587
0.00499397
0.00222221
-0.000530413
-0.00321408
-0.00578132
-0.00819
-0.0104057
-0.0124035
-0.014168
-0.0156936
-0.0169832
-0.0180462
-0.0188961
-0.0195502
-0.0200421
-0.0204283
-0.0206503
-0.0201846
-0.0183439
0.0231122
0.0239438
0.0233593
0.022002
0.0204405
0.0187467
0.0168785
0.0148281
0.0126106
0.010249
0.00777353
0.00522144
0.00263628
6.55048e-05
-0.00244239
-0.00484104
-0.00708921
-0.00915325
-0.0110086
-0.0126406
-0.0140439
-0.0152214
-0.0161826
-0.0169411
-0.0175138
-0.0179323
-0.0182515
-0.0184236
-0.0179568
-0.0161488
0.021943
0.0226816
0.0221468
0.0209228
0.0195034
0.0179587
0.0162462
0.0143571
0.0123053
0.0101123
0.00780643
0.0054232
0.00300454
0.000596378
-0.00175415
-0.00400185
-0.00610646
-0.00803513
-0.00976399
-0.0112788
-0.0125745
-0.0136544
-0.0145279
-0.0152087
-0.0157131
-0.016071
-0.0163356
-0.0164694
-0.0160099
-0.0142384
0.020925
0.0215599
0.0210622
0.0199632
0.0186708
0.0172545
0.0156793
0.0139339
0.0120303
0.00998848
0.00783521
0.00560442
0.00333637
0.00107551
-0.00113242
-0.0032434
-0.00521822
-0.00702486
-0.00864015
-0.0100503
-0.0112508
-0.0122449
-0.0130422
-0.0136563
-0.0141031
-0.0144108
-0.0146306
-0.0147352
-0.0142887
-0.0125557
0.0200162
0.0205502
0.0200801
0.019088
0.017919
0.0166146
0.0151619
0.0135466
0.0117775
0.00987337
0.00785946
0.00576813
0.0036381
0.00151229
-0.000564914
-0.00255073
-0.00440696
-0.0061025
-0.00761487
-0.00893083
-0.0100461
-0.0109642
-0.0116947
-0.0122512
-0.0126493
-0.0129153
-0.013099
-0.0131812
-0.0127518
-0.0110577
0.0191879
0.0196209
0.0191773
0.0182794
0.0172244
0.0160237
0.0146811
0.0131852
0.0115402
0.00976313
0.00787813
0.00591605
0.00391404
0.00191351
-4.25045e-05
-0.00191246
-0.00365925
-0.00525262
-0.00667082
-0.00790112
-0.00893955
-0.00978976
-0.0104614
-0.0109679
-0.0113245
-0.0115559
-0.0117102
-0.0117759
-0.0113666
-0.00971171
0.01842
0.0187499
0.0183342
0.0175231
0.0165681
0.0154708
0.0142264
0.012841
0.0113121
0.00965408
0.00788985
0.00604902
0.00416715
0.00228419
0.000441781
-0.00131979
-0.00296449
-0.00446296
-0.00579415
-0.00694586
-0.00791438
-0.0087035
-0.00932284
-0.0097856
-0.0101069
-0.0103098
-0.0104404
-0.0104943
-0.0101075
-0.00849246
0.0176907
0.0179244
0.0175382
0.0168037
0.015938
0.0149442
0.0137912
0.0125076
0.0110883
0.00954289
0.00789312
0.0061673
0.0043995
0.00262812
0.000893395
-0.00076566
-0.0023141
-0.00372351
-0.00497351
-0.00605239
-0.00695674
-0.00769041
-0.00826296
-0.00868743
-0.00897864
-0.00915811
-0.00927022
-0.0093165
-0.00895431
-0.00738056
0.0169829
0.0171308
0.0167747
0.0161124
0.0153284
0.0144291
0.0133692
0.0121789
0.0108638
0.00942633
0.00788627
0.0062708
0.00461249
0.0029482
0.00131671
-0.000244291
-0.001701
-0.0030259
-0.00419934
-0.00521008
-0.00605498
-0.00673792
-0.00726837
-0.00765922
-0.00792486
-0.00808554
-0.00818374
-0.0082262
-0.00789061
-0.00636113
0.0162861
0.0163562
0.0160316
0.0154395
0.0147301
0.0139152
0.0129536
0.0118502
0.0106342
0.00930134
0.00786758
0.0063591
0.00480706
0.00324671
0.0017153
0.000249154
-0.00111911
-0.00236293
-0.00346339
-0.00440972
-0.00519902
-0.00583522
-0.00632764
-0.00668896
-0.00693316
-0.00707932
-0.0071679
-0.00721015
-0.00690328
-0.00542316
0.0155929
0.015589
0.0152969
0.014773
0.0141355
0.0133991
0.0125348
0.0115175
0.0103958
0.00916488
0.00783522
0.00643158
0.00498379
0.00352545
0.00209217
0.000718852
-0.000563134
-0.00172827
-0.00275838
-0.00364318
-0.00438002
-0.00497285
-0.00543082
-0.00576633
-0.00599305
-0.00612884
-0.00621208
-0.00625772
-0.00598188
-0.00455887
0.0148963
0.0148194
0.0145614
0.0141044
0.0135373
0.0128765
0.0121035
0.0111774
0.0101445
0.00901381
0.00778724
0.00648741
0.00514297
0.00378583
0.0024499
0.00116852
-2.83164e-05
-0.00111616
-0.00207765
-0.00290306
-0.00358998
-0.00414237
-0.00456918
-0.00488252
-0.00509561
-0.00522526
-0.00530758
-0.00536047
-0.00511829
-0.00376331
0.0141874
0.0140404
0.0138179
0.0134268
0.0129301
0.0123408
0.0116522
0.0108254
0.00987743
0.00884517
0.00772158
0.00652554
0.00528462
0.004029
0.00279075
0.0016015
0.000489777
-0.000521217
-0.00141503
-0.00218251
-0.00282154
-0.0033361
-0.0037349
-0.0040297
-0.00423323
-0.00436117
-0.0044474
-0.00451182
-0.00430652
-0.00303407
0.0134575
0.0132445
0.0130592
0.0127331
0.0123058
0.0117878
0.0111793
0.0104537
0.00959208
0.00865617
0.00763605
0.00654475
0.00540852
0.00425583
0.00311673
0.00202098
0.000995372
6.17385e-05
-0.000764522
-0.00147495
-0.00206777
-0.00254695
-0.00292096
-0.00320112
-0.00339954
-0.0035308
-0.00362625
-0.00370703
-0.00354261
-0.00237102
0.0126971
0.0124247
0.0122789
0.012017
0.0116582
0.0112121
0.0106825
0.010055
0.00928586
0.0084436
0.00752809
0.00654348
0.00551416
0.00446696
0.00342972
0.00242998
0.00149265
0.000637871
-0.000120188
-0.000773912
-0.00132194
-0.00176823
-0.00212094
-0.00239083
-0.00258926
-0.0027298
-0.00284074
-0.00294338
-0.00282455
-0.001776
0.0118951
0.0115734
0.0114698
0.0112727
0.0109828
0.01061
0.010158
0.00962256
0.00895548
0.00820379
0.0073947
0.00651984
0.00560077
0.00466284
0.00373144
0.0028316
0.00198591
0.00121254
0.00052412
-7.27859e-05
-0.000577332
-0.000993475
-0.0013289
-0.00159369
-0.00179836
-0.00195495
-0.00208899
-0.00222006
-0.00215257
-0.00125245
0.0110362
0.0106815
0.0106245
0.0104938
0.0102736
0.00997548
0.00960109
0.00915313
0.0085957
0.00793501
0.00723328
0.00647178
0.00566736
0.00484375
0.00402358
0.00322892
0.00247955
0.00179121
0.00117457
0.000634899
0.00017239
-0.000216872
-0.00053991
-0.000805882
-0.00102418
-0.00120499
-0.00137067
-0.00153764
-0.00152884
-0.000804938
0.0101002
0.00973649
0.00973191
0.0096709
0.00952392
0.00930216
0.00900696
0.00864596
0.0081989
0.00763522
0.00704119
0.00639726
0.00571288
0.00500984
0.00430765
0.00362481
0.00297764
0.0023788
0.00183655
0.00135447
0.000931989
0.000565401
0.000248693
-2.60928e-05
-0.000266797
-0.000481614
-0.000688754
-0.000900445
-0.000958478
-0.000438278
0.00906864
0.00873459
0.00878676
0.00879741
0.00872847
0.00858692
0.00837346
0.00810022
0.00775973
0.00730053
0.00681413
0.0062927
0.00573485
0.00516009
0.00458445
0.00402208
0.00348489
0.00298155
0.00251715
0.002093
0.0017076
0.00135867
0.00104094
0.000747929
0.00047405
0.00021382
-4.61948e-05
-0.000312061
-0.000446412
-0.000155842
0.00790925
0.00770291
0.0078261
0.00789814
0.00790313
0.00784064
0.00770681
0.00751653
0.00727334
0.00692463
0.00654217
0.00614727
0.00572411
0.0052891
0.00485413
0.00442756
0.00401515
0.00361972
0.00324163
0.00287869
0.00252803
0.00219203
0.00186396
0.0015397
0.00121739
0.000895533
0.000566556
0.000232583
5.29073e-06
4.22249e-05
0.00642587
0.00658491
0.00687242
0.00700394
0.00706503
0.00706811
0.00700333
0.00688278
0.00672188
0.00648789
0.00620809
0.00594424
0.00566903
0.00539372
0.00512419
0.00486036
0.00459866
0.00433315