/*--------------------------------*- C++ -*----------------------------------*\
  =========                 |
  \\      /  F ield         | OpenFOAM: The Open Source CFD Toolbox
   \\    /   O peration     | Website:  https://openfoam.org
    \\  /    A nd           | Version:  12
     \\/     M anipulation  |
\*---------------------------------------------------------------------------*/
FoamFile
{
    format      ascii;
    class       volScalarField;
    location    "240";
    object      pPrime2Mean;
}
// * * * * * * * * * * * * * * * * * * * * * * * * * * * * * * * * * * * * * //

dimensions      [0 4 -4 0 0 0 0];

internalField   nonuniform List<scalar> 
6750
(
0.00542634
0.00541833
0.00540814
0.00539911
0.00538948
0.00542933
0.00541826
0.00540088
0.00538026
0.00535866
0.00545586
0.00544213
0.00541959
0.00539071
0.0053597
0.00550488
0.00549025
0.00546598
0.00543437
0.00540051
0.00557347
0.00556007
0.00553776
0.00550839
0.00547693
0.00565682
0.00564653
0.00562924
0.00560598
0.00558097
0.00574885
0.00574308
0.0057331
0.00571883
0.00570333
0.00584314
0.0058428
0.00584159
0.00583823
0.00583437
0.00593368
0.00593917
0.0059474
0.00595582
0.0059647
0.00601544
0.00602667
0.0060442
0.00606433
0.006086
0.00608461
0.00610107
0.00612709
0.00615798
0.00619153
0.00613875
0.00615959
0.00619274
0.00623274
0.00627642
0.00617668
0.00620086
0.00623941
0.00628634
0.00633782
0.00619839
0.00622473
0.00626676
0.00631819
0.00637481
0.00620476
0.00623206
0.00627565
0.00632913
0.00638812
0.00619723
0.00622439
0.00626776
0.00632099
0.00637971
0.0061758
0.00620169
0.00624307
0.00629374
0.00634952
0.00613914
0.00616258
0.00620005
0.00624571
0.00629581
0.0060866
0.00610647
0.00613815
0.00617642
0.00621821
0.00601844
0.00603373
0.00605796
0.00608676
0.00611799
0.00593605
0.00594596
0.00596148
0.00597925
0.00599831
0.00584206
0.00584616
0.00585225
0.00585817
0.00586428
0.00574046
0.00573871
0.00573533
0.00572944
0.00572277
0.00563642
0.00562926
0.00561715
0.00560042
0.00558217
0.00553604
0.00552441
0.00550508
0.00547946
0.00545184
0.00544579
0.00543113
0.00540689
0.00537529
0.00534141
0.00537181
0.00535599
0.00532992
0.00529623
0.00526015
0.00531892
0.00530408
0.00527985
0.00524902
0.00521597
0.00529005
0.00527797
0.00525904
0.00523659
0.00521311
0.00528612
0.00527729
0.00526584
0.00525538
0.0052445
0.00535644
0.00531509
0.00523604
0.00512431
0.00498187
0.00481022
0.00460992
0.00438153
0.00412726
0.0038505
0.00355445
0.00324645
0.00293312
0.00262213
0.00232115
0.00203705
0.00177532
0.00153972
0.00133202
0.00115198
0.00099789
0.000869372
0.000762134
0.000673291
0.000600202
0.000540342
0.000491618
0.000452093
0.000420375
0.000400195
0.00536204
0.00529356
0.00519267
0.00506283
0.00490521
0.00472079
0.00451081
0.00427717
0.00402287
0.00375129
0.00346514
0.00317181
0.00287641
0.00258514
0.00230403
0.00203835
0.00179238
0.00156905
0.00136994
0.00119548
0.00104529
0.000916042
0.00080731
0.000716284
0.000640567
0.000578097
0.00052694
0.000485117
0.000450504
0.000423764
0.00534332
0.00525333
0.00513529
0.00499246
0.00482464
0.00463274
0.00441816
0.00418316
0.00393112
0.00366493
0.00338827
0.00310772
0.00282748
0.00255269
0.0022881
0.00203781
0.00180509
0.00159228
0.0014007
0.00123075
0.00108204
0.000953593
0.000843883
0.000751018
0.000673053
0.000608109
0.000554401
0.000510062
0.000473558
0.000445541
0.00531258
0.00520848
0.00507825
0.00492626
0.00475238
0.00455692
0.00434114
0.00410746
0.00385922
0.00359856
0.00333048
0.00306015
0.0027914
0.00252869
0.00227605
0.00203689
0.00181392
0.00160909
0.00142358
0.0012578
0.0011115
0.000984064
0.00087423
0.000780464
0.000701087
0.000634345
0.000578376
0.000531426
0.000492555
0.000465119
0.00527796
0.005164
0.00502457
0.00486558
0.00468776
0.00449081
0.00427581
0.00404499
0.00380129
0.00354646
0.00328607
0.00302409
0.00276424
0.00251059
0.00226673
0.00203578
0.00182016
0.00162166
0.00144133
0.00127955
0.00113613
0.00101041
0.000901335
0.000807544
0.000727492
0.000659499
0.000601707
0.000552239
0.000511251
0.000484373
0.00524493
0.00512345
0.00497718
0.00481285
0.00463214
0.00443492
0.0042217
0.00399441
0.00375535
0.00350623
0.00325241
0.00299713
0.00274406
0.00249702
0.00225949
0.00203447
0.00182433
0.00163078
0.00145483
0.00129677
0.00115635
0.00103282
0.000925128
0.000831927
0.000751724
0.000682924
0.000623656
0.000572151
0.000529418
0.000503246
0.00521684
0.00508953
0.0049379
0.00476967
0.00458692
0.00438996
0.00417893
0.00395528
0.00372044
0.0034765
0.00322805
0.00297793
0.00272977
0.00248732
0.00225407
0.00203309
0.00182683
0.00163703
0.00146464
0.0013099
0.00117239
0.00105126
0.000945283
0.00085306
0.000773086
0.000703837
0.000643503
0.000590439
0.000546336
0.00052102
0.0051965
0.00506455
0.00490861
0.00473725
0.0045533
0.00435667
0.00414784
0.00392747
0.00369615
0.00345658
0.00321217
0.00296568
0.00272072
0.00248106
0.00225031
0.00203174
0.00182795
0.00164077
0.00147115
0.00131923
0.00118443
0.00106569
0.000961601
0.000870616
0.000791214
0.000721778
0.000660744
0.000606624
0.000561491
0.000537014
0.00518643
0.00505065
0.00489089
0.00471679
0.00453191
0.00433568
0.0041287
0.00391096
0.0036824
0.00344606
0.00320428
0.00295988
0.00271647
0.00247792
0.00224809
0.00203046
0.00182786
0.00164226
0.00147461
0.00132495
0.00119255
0.00107609
0.000973939
0.00088439
0.000805847
0.000736625
0.000675281
0.000620388
0.000574475
0.00055068
0.00518912
0.00504993
0.00488643
0.00470954
0.00452363
0.00432781
0.00412202
0.00390589
0.00367926
0.00344476
0.00320414
0.00296025
0.00271676
0.00247774
0.00224731
0.00202926
0.00182666
0.00164163
0.00147514
0.00132717
0.00119676
0.00108239
0.000982182
0.000894229
0.000816746
0.000748132
0.000686816
0.000631396
0.000584882
0.000561535
0.0052071
0.00506454
0.00489698
0.00471684
0.00452938
0.00433356
0.00412831
0.0039127
0.00368693
0.00345277
0.00321175
0.00296673
0.00272152
0.00248044
0.00224793
0.00202814
0.00182439
0.00163893
0.00147281
0.00132588
0.00119705
0.00108454
0.000986218
0.000899968
0.000823816
0.000756099
0.000695049
0.000639312
0.000592339
0.000569168
0.00524319
0.00509686
0.00492456
0.0047403
0.00455055
0.00435396
0.00414826
0.00393205
0.00370582
0.0034704
0.00322729
0.00297944
0.0027308
0.00248602
0.00224996
0.00202709
0.00182102
0.00163416
0.00146758
0.00132107
0.00119336
0.00108245
0.000985956
0.000901505
0.000826872
0.000760301
0.000699676
0.000643799
0.000596524
0.000573268
0.0053006
0.00514972
0.00497169
0.00478218
0.00458919
0.00439039
0.0041829
0.00396491
0.00373661
0.00349817
0.00325116
0.00299861
0.00274473
0.00249457
0.00225341
0.0020261
0.00181653
0.00162726
0.0014594
0.00131267
0.00118563
0.00107605
0.000981296
0.000898687
0.00082569
0.000760309
0.000700365
0.000644566
0.000597187
0.000573628
0.00538327
0.00522651
0.00504142
0.00484509
0.00464727
0.00444474
0.00423389
0.00401257
0.00378029
0.00353688
0.00328392
0.00302463
0.00276357
0.00250622
0.00225834
0.00202517
0.00181086
0.00161813
0.00144816
0.00130058
0.00117378
0.00106527
0.000972139
0.000891342
0.000820093
0.000756013
0.000696905
0.000641439
0.000594218
0.000570196
0.0054959
0.00533157
0.00513766
0.00493249
0.00472797
0.00451972
0.00430343
0.00407681
0.0038383
0.0035876
0.00332637
0.00305805
0.00278765
0.00252117
0.00226485
0.00202429
0.00180393
0.00160667
0.00143372
0.00128467
0.00115769
0.00105001
0.000958356
0.000879357
0.000809875
0.000747224
0.000689188
0.000634384
0.000587677
0.000563152
0.00564445
0.00547047
0.00526566
0.00504924
0.00483557
0.00461898
0.0043948
0.00416016
0.00391258
0.00365177
0.00337949
0.00309953
0.0028174
0.00253966
0.00227301
0.00202343
0.00179566
0.00159276
0.00141598
0.0012648
0.0011372
0.00103006
0.000939744
0.000862529
0.000794878
0.000733863
0.000677242
0.000623566
0.000577886
0.000553027
0.00583672
0.00565064
0.00543251
0.00520177
0.00497583
0.00474762
0.00451237
0.00426596
0.00400567
0.0037312
0.00344453
0.00314987
0.00285333
0.00256196
0.00228291
0.00202256
0.00178595
0.00157628
0.0013948
0.00124084
0.00111213
0.00100522
0.000916073
0.000840611
0.000775015
0.000716006
0.000661332
0.00060948
0.000565599
0.000540893
0.00608326
0.00588214
0.00564773
0.00539858
0.00515626
0.00491228
0.00466134
0.0043984
0.00412075
0.00382817
0.00352303
0.0032101
0.00289601
0.00258831
0.0022946
0.00202163
0.00177469
0.0015571
0.00137003
0.00121262
0.00108231
0.000975315
0.000887237
0.00081362
0.000750374
0.000694007
0.000642126
0.000593183
0.000552303
0.000528712
0.00639854
0.00617844
0.00592383
0.00565084
0.0053867
0.00512127
0.00484832
0.00456269
0.00426172
0.0039455
0.00361693
0.00328139
0.00294605
0.00261896
0.00230811
0.00202056
0.00176178
0.00153509
0.00134152
0.00117998
0.00104761
0.000940324
0.000853363
0.000781891
0.00072157
0.000668789
0.000621074
0.000576762
0.000540722
0.000519875
0.00680256
0.00655791
0.00627758
0.00597325
0.00567975
0.00538474
0.00508167
0.00476526
0.00443335
0.00408654
0.00372841
0.003365
0.00300407
0.00265412
0.00232344
0.0020193
0.00174713
0.00151015
0.00130916
0.00114285
0.00100808
0.000900495
0.000815007
0.000746444
0.000690199
0.000642542
0.000601109
0.000564182
0.00053581
0.000520277
0.0073233
0.00704617
0.0067322
0.00638591
0.00605194
0.00571622
0.00537192
0.00501419
0.00464148
0.00425523
0.0038599
0.0034623
0.00307073
0.00269402
0.00234062
0.00201775
0.00173064
0.00148219
0.00127295
0.00110134
0.000964047
0.000856494
0.000773355
0.000709183
0.000659106
0.000619352
0.000587634
0.000562622
0.000546383
0.00054032
0.00800006
0.00767829
0.00731955
0.0069159
0.00652582
0.00613379
0.00573304
0.00531966
0.00489315
0.00445616
0.0040142
0.00357483
0.00314675
0.00273893
0.00235968
0.00201583
0.00171217
0.00145117
0.001233
0.00105585
0.000916294
0.000809677
0.000730604
0.000673497
0.000633317
0.000606311
0.000590359
0.00058468
0.000587781
0.000598275
0.00888591
0.00850216
0.00808332
0.00759993
0.00713161
0.00666133
0.00618273
0.00569421
0.00519684
0.00469477
0.00419457
0.00370437
0.00323301
0.00278915
0.00238055
0.00201334
0.00169157
0.00141709
0.00118964
0.00100717
0.000866268
0.000762443
0.000690538
0.000645156
0.000621339
0.000615448
0.000625523
0.00065168
0.00068542
0.000724314
0.0100477
0.00958004
0.00907968
0.00848612
0.00790861
0.0073288
0.00674303
0.00615321
0.00556274
0.00497744
0.00440476
0.00385293
0.00333035
0.00284485
0.00240307
0.00200999
0.00166862
0.00138001
0.0011434
0.000956596
0.000816367
0.000718756
0.000659369
0.000633615
0.000637146
0.000666517
0.000719814
0.000797656
0.00087869
0.000963039
0.0115634
0.0109844
0.0103775
0.00963445
0.00890539
0.00817235
0.00743987
0.00671444
0.00600248
0.00531137
0.00464882
0.00402247
0.00343943
0.00290589
0.0024267
0.00200513
0.00164278
0.00133973
0.00109477
0.00090574
0.000769939
0.000684501
0.000646602
0.000653434
0.000702134
0.000789714
0.00091303
0.00107149
0.00122193
0.00137225
0.0135132
0.0127896
0.0120445
0.011102
0.0101651
0.00922478
0.0082967
0.0073941
0.00652683
0.00570331
0.00493067
0.00421487
0.00356073
0.00297183
0.00245038
0.00199729
0.00161243
0.00129483
0.001043
0.000855255
0.000730099
0.000666619
0.000664635
0.000724333
0.000845303
0.0010249
0.00125671
0.0015341
0.00178044
0.00202029
0.0159399
0.015029
0.0140985
0.0129002
0.011698
0.0104981
0.00932755
0.00820779
0.00715166
0.00616807
0.00526287
0.00443972
0.00370048
0.00304548
0.00247379
0.00198369
0.00157317
0.00124036
0.000983897
0.000803251
0.000699015
0.000673166
0.000728977
0.000870173
0.00109892
0.00141215
0.00179794
0.00223839
0.00261848
0.00297691
0.0190116
0.0177876
0.0165551
0.0150566
0.0135613
0.0120786
0.0106404
0.00927256
0.00799151
0.00680877
0.0057315
0.00476319
0.00390437
0.00315332
0.00250693
0.00196162
0.0015142
0.00116251
0.000905899
0.000745347
0.000683408
0.000723891
0.000871115
0.00112853
0.00149669
0.00197007
0.00253392
0.00316832
0.00376156
0.00433207
0.0237814
0.0222022
0.0206064
0.0187572
0.016893
0.0150113
0.0131559
0.011369
0.0096834
0.00812498
0.00671072
0.00544957
0.00434393
0.00339184
0.00258912
0.00193139
0.00141554
0.00104057
0.000808085
0.000721686
0.000785311
0.00100127
0.00136853
0.00187947
0.00251863
0.00326059
0.00407296
0.00493555
0.00569123
0.00644152
0.0386549
0.0358227
0.0326062
0.0293356
0.0260738
0.0228204
0.0196482
0.0166268
0.0138133
0.0112524
0.00897244
0.00698605
0.00529345
0.0038876
0.00275916
0.00190094
0.00131089
0.00099377
0.000959882
0.00122259
0.0017945
0.00268212
0.00387983
0.00536697
0.00710651
0.00904537
0.0111173
0.0133052
0.0155495
0.017577
0.0053694
0.00534139
0.0053172
0.00529427
0.00527387
0.00525748
0.00524703
0.0052446
0.00525242
0.00527287
0.00530852
0.00536231
0.00543766
0.00553872
0.00567053
0.00583946
0.00605378
0.00632471
0.0066679
0.00710539
0.00766844
0.00840109
0.00936283
0.0106269
0.012277
0.014404
0.0171059
0.0206755
0.0260826
0.0418205
0.0053383
0.00531785
0.0053005
0.00528629
0.00527757
0.00527535
0.00528092
0.00529585
0.00532201
0.00536165
0.00541739
0.00549238
0.0055904
0.00571605
0.00587502
0.0060745
0.00632394
0.00663606
0.00702841
0.00752537
0.0081612
0.00898355
0.010056
0.0114558
0.0132706
0.015606
0.0186327
0.0227027
0.0285793
0.0452223
0.00534169
0.00533715
0.00533499
0.00533548
0.0053412
0.00535362
0.00537442
0.00540547
0.00544886
0.00550696
0.00558257
0.00567903
0.00580039
0.0059516
0.00613885
0.0063701
0.00665586
0.00701026
0.0074526
0.00800942
0.00871765
0.00962822
0.0108083
0.0123381
0.0143072
0.0168354
0.020159
0.0246859
0.0308934
0.048996
0.00538846
0.00540004
0.00541375
0.00542987
0.00545133
0.00547989
0.00551747
0.00556612
0.00562814
0.00570613
0.00580313
0.00592272
0.00606926
0.00624807
0.00646586
0.00673124
0.00705563
0.00745425
0.00794757
0.00856342
0.00934002
0.0103294
0.0115991
0.0132272
0.0152988
0.0179456
0.0214919
0.0264864
0.0329232
0.0530491
0.00547253
0.00549876
0.00552774
0.00555943
0.00559695
0.00564241
0.0056979
0.00576564
0.00584807
0.00594798
0.00606863
0.00621386
0.00638837
0.00659785
0.00684953
0.0071527
0.00751961
0.00796634
0.00851423
0.0091918
0.0100376
0.0111034
0.0124548
0.0141643
0.0163085
0.0190294
0.0227587
0.0282659
0.0347621
0.0573362
0.00558532
0.00562446
0.00566762
0.00571448
0.00576809
0.00583074
0.00590474
0.00599247
0.00609652
0.00621983
0.00636587
0.0065387
0.00674328
0.00698571
0.00727363
0.00761695
0.00802851
0.00852509
0.00912841
0.00986703
0.0107789
0.0119141
0.0133342
0.0151034
0.0172869
0.020037
0.0239184
0.0300455
0.036422
0.0620171
0.00571721
0.00576759
0.00582366
0.00588498
0.00595437
0.00603416
0.00612682
0.00623485
0.00636102
0.00650842
0.00668067
0.00688206
0.00711773
0.00739409
0.00771918
0.00810333
0.00855984
0.00910573
0.00976279
0.010559
0.0115311
0.0127263
0.0142009
0.0160086
0.0182003
0.0209378
0.0249445
0.0318626
0.0379486
0.0673169
0.00585828
0.00591835
0.00598594
0.00606072
0.00614518
0.00624163
0.00635255
0.00648058
0.0066286
0.00679985
0.00699809
0.00722776
0.00749418
0.00780397
0.00816547
0.00858928
0.00908889
0.00968135
0.0103881
0.0112364
0.012261
0.0135061
0.0150222
0.0168503
0.0190244
0.0217139
0.0258162
0.0337523
0.0394048
0.0734769
0.00599875
0.00606711
0.00614483
0.00623181
0.00633025
0.00644236
0.0065706
0.00671764
0.00688644
0.00708037
0.00730327
0.00755972
0.00785516
0.00819635
0.00859182
0.0090523
0.00959126
0.0102256
0.0109762
0.0118693
0.0129381
0.0142237
0.0157705
0.0176058
0.0197434
0.0223567
0.0265181
0.0357395
0.0408674
0.0806915
0.00612977
0.00620514
0.00629158
0.00638932
0.00650029
0.00662658
0.00677058
0.00693497
0.00712273
0.00733726
0.00758249
0.00786307
0.00818457
0.00855382
0.00897941
0.00947203
0.010045
0.010715
0.0115025
0.0124326
0.013537
0.0148546
0.0164244
0.0182587
0.020348
0.0228675
0.0270448
0.0378289
0.0424155
0.0890137
0.00624409
0.00632524
0.00641897
0.00652584
0.00664757
0.00678613
0.00694382
0.00712326
0.00732742
0.00755972
0.00782413
0.00812532
0.00846896
0.00886191
0.00931269
0.00983193
0.0104328
0.0111316
0.0119484
0.0129075
0.0140395
0.0153817
0.0169691
0.0187988
0.0208347
0.0232543
0.0274032
0.0399935
0.0441056
0.0982411
0.0063364
0.0064221
0.00652166
0.0066359
0.00676639
0.00691495
0.00708381
0.0072755
0.00749296
0.00773961
0.00801945
0.00833718
0.00869845
0.00911012
0.00958064
0.0101205
0.0107427
0.0114634
0.012302
0.0132825
0.0144346
0.015795
0.0173962
0.0192207
0.0212041
0.0235291
0.0276129
0.0421603
0.0459363
0.107804
0.00640347
0.00649254
0.00659642
0.00671619
0.00685324
0.0070093
0.0071865
0.00738731
0.00761466
0.00787196
0.00816321
0.0084931
0.00886724
0.00929245
0.00977712
0.0103316
0.0109689
0.0117048
0.0125585
0.0135535
0.0147191
0.016092
0.0177036
0.0195239
0.0214603
0.0237047
0.0277029
0.0442058
0.0478191
0.116793
0.00644419
0.00653543
0.00664215
0.00676555
0.00690689
0.00706784
0.00725044
0.00745715
0.0076909
0.00795508
0.00825366
0.00859132
0.00897363
0.00940736
0.00990087
0.0104645
0.0111111
0.0118563
0.0127191
0.0137226
0.014896
0.0162765
0.0178954
0.0197129
0.021612
0.0237965
0.027707
0.0459236
0.0495317
0.124083
0.00645925
0.00655154
0.00665964
0.00678479
0.00692819
0.00709146
0.00727661
0.00748611
0.00772288
0.0079903
0.00829233
0.0086336
0.00901965
0.00945729
0.00995486
0.0105227
0.0111736
0.0119231
0.0127901
0.0137975
0.0149746
0.0163588
0.0179818
0.0197988
0.0216777
0.0238303
0.027674
0.0469109
0.0506124
0.128237
0.0064507
0.00654303
0.00665117
0.00677635
0.00691974
0.00708296
0.00726805
0.00747747
0.00771414
0.00798144
0.0082833
0.00862435
0.00901016
0.00944757
0.00994496
0.0105127
0.0111636
0.0119133
0.0127805
0.0137883
0.0149658
0.0163508
0.0179748
0.0197927
0.0216723
0.023826
0.0276644
0.046893
0.0505995
0.128396
0.0064185
0.00650987
0.00661672
0.00674022
0.00688158
0.00704245
0.00722491
0.00743142
0.00766489
0.00792872
0.00822683
0.00856388
0.00894551
0.0093786
0.00987163
0.010435
0.0110817
0.0118273
0.0126908
0.0136954
0.0148705
0.0162532
0.0178749
0.0196951
0.0215965
0.0237838
0.02768
0.045876
0.0494979
0.124539
0.0063608
0.00645009
0.00655425
0.00667428
0.00681148
0.00696756
0.00714464
0.00734522
0.0075722
0.00782898
0.00811951
0.00844849
0.00882165
0.00924592
0.00972988
0.0102841
0.0109216
0.0116582
0.0125132
0.0135101
0.0146784
0.0160551
0.0176712
0.0194957
0.0214358
0.0236848
0.0276643
0.0441444
0.0477767
0.117487
0.0062773
0.00636335
0.00646335
0.00657809
0.00670896
0.00685775
0.00702665
0.00721818
0.00743528
0.00768133
0.00796032
0.00827698
0.00863707
0.00904763
0.00951733
0.0100569
0.0106795
0.0114012
0.0122418
0.013225
0.014381
0.0157464
0.0173532
0.0191831
0.0211722
0.0235039
0.027571
0.0421041
0.0458983
0.10867
0.0061695
0.00625114
0.00634551
0.00645314
0.00657555
0.00671463
0.00687263
0.00705212
0.00725603
0.00748777
0.00775131
0.00805139
0.00839379
0.00878559
0.00923554
0.00975451
0.0103559
0.0110561
0.0118753
0.012838
0.0139747
0.0153227
0.0169164
0.0187524
0.0207965
0.0232264
0.0273676
0.0399588
0.0440826
0.0992204
0.00604096
0.00611701
0.00620432
0.0063031
0.00641506
0.00654221
0.00668686
0.0068516
0.00703935
0.00725351
0.00749801
0.00777755
0.00809786
0.00846603
0.00889087
0.00938332
0.00995698
0.0106286
0.0114189
0.0123531
0.0134627
0.0147863
0.0163625
0.018204
0.0203045
0.02284
0.0270247
0.0378273
0.0424162
0.0900544
0.00589725
0.00596656
0.00604543
0.00613377
0.00623355
0.00634687
0.00647612
0.00662388
0.00679304
0.00698691
0.00720935
0.00746497
0.00775941
0.00809967
0.00849449
0.00895491
0.00949462
0.0101307
0.0108842
0.0117815
0.0128554
0.0141467
0.0156997
0.0175431
0.0196959
0.022333
0.0265211
0.0357769
0.0408987
0.0817541
0.00574579
0.00580717
0.00587628
0.0059528
0.00603896
0.006137
0.00624933
0.00637849
0.0065273
0.00669893
0.00689711
0.00712632
0.00739202
0.00770102
0.00806197
0.00848575
0.0089861
0.00958028
0.0102898
0.0111419
0.012171
0.0134211
0.0149429
0.0167804
0.0189746
0.0216977
0.025847
0.0338293
0.0394731
0.0745355
0.00559545
0.00564762
0.00570567
0.00576916
0.00584065
0.00592244
0.0060169
0.00612651
0.00625394
0.00640223
0.00657492
0.00677628
0.00701153
0.00728725
0.00761177
0.00799579
0.0084529
0.00900026
0.00965968
0.0104591
0.0114347
0.0126338
0.0141138
0.0159326
0.0181498
0.0209324
0.0250046
0.0319767
0.0380601
0.0683595
0.00545595
0.00549745
0.00554311
0.0055926
0.00564872
0.00571374
0.00578994
0.00587965
0.00598542
0.0061101
0.00625705
0.00643024
0.00663466
0.00687651
0.00716378
0.00750678
0.00791866
0.00841634
0.00902146
0.00976236
0.0106768
0.0118149
0.0132403
0.0150229
0.0172381
0.0200444
0.0240065
0.0301931
0.0365836
0.0630444
0.00533719
0.00536636
0.00539834
0.00543305
0.00547341
0.0055215
0.00557946
0.00564945
0.00573389
0.00583547
0.00595732
0.00610317
0.00627762
0.00648654
0.00673746
0.00704009
0.00740703
0.00785451
0.00840367
0.00908277
0.00993027
0.0109985
0.0123557
0.0140813
0.0162633
0.0190509
0.0228721
0.0284439
0.0349812
0.0583591
0.00524867
0.00526375
0.00528087
0.00530025
0.00532464
0.00535588
0.0053959
0.00544678
0.00551077
0.0055904
0.00568858
0.00580876
0.00595523
0.00613342
0.00635033
0.00661506
0.00693934
0.00733852
0.0078328
0.00844978
0.00922782
0.01022
0.011497
0.0131447
0.0152597
0.0179815
0.0216273
0.0266933
0.0332071
0.0540852
0.0051989
0.00519837
0.00519989
0.00520359
0.00521199
0.0052267
0.0052495
0.00528228
0.00532712
0.00538635
0.00546269
0.00555941
0.00568049
0.00583099
0.00601739
0.00624803
0.00653376
0.0068888
0.00733219
0.00789042
0.00860085
0.0095158
0.0107061
0.0122598
0.0142775
0.0168862
0.0203138
0.0249219
0.0312488
0.0500645
0.00519392
0.0051779
0.00516415
0.00515268
0.00514591
0.0051451
0.00515168
0.00516729
0.00519386
0.00523362
0.00528921
0.00536379
0.00546118
0.00558608
0.00574441
0.00594363
0.00619342
0.00650664
0.00690076
0.00740032
0.00804028
0.00886987
0.00995629
0.0113843
0.0132507
0.0156671
0.0187973
0.0229586
0.0289909
0.0463183
0.00522623
0.00520216
0.00518029
0.00515878
0.00513907
0.00512279
0.00511194
0.00510871
0.00511545
0.00513464
0.00516894
0.0052214
0.00529557
0.00539577
0.00552721
0.00569634
0.00591154
0.00618418
0.00653026
0.00697219
0.00754188
0.00828496
0.00926423
0.0105597
0.0122616
0.0144665
0.0172689
0.0209403
0.0265297
0.0429367
0.0397583
0.036877
0.033566
0.0301746
0.0267873
0.0234148
0.0201343
0.0170186
0.0141256
0.0115001
0.00916972
0.00714563
0.0054265
0.00400374
0.00286672
0.00200717
0.00142231
0.00111652
0.00109983
0.00138529
0.00198499
0.00290442
0.0041361
0.00565659
0.00742525
0.00938481
0.0114653
0.0136477
0.0158708
0.0178737
0.0242486
0.0226815
0.021067
0.0191666
0.0172421
0.0153018
0.013394
0.0115631
0.00984277
0.00825802
0.0068247
0.00555038
0.00443619
0.00347912
0.00267411
0.00201604
0.00150119
0.00112784
0.000897024
0.000811821
0.000875712
0.00109062
0.00145519
0.00196149
0.00259378
0.00332615
0.0041264
0.00497565
0.00570963
0.00644925
0.0192887
0.018085
0.0168552
0.0153364
0.0138094
0.0122922
0.0108211
0.00942449
0.00812003
0.0069193
0.00582887
0.00485138
0.00398644
0.00323152
0.00258275
0.00203582
0.00158679
0.00123261
0.000971718
0.000804178
0.00073181
0.00075803
0.000887237
0.00112347
0.00146834
0.00191776
0.00245901
0.00307487
0.00365096
0.00421663
0.0161044
0.015205
0.0142762
0.0130655
0.0118461
0.0106289
0.00944273
0.00830984
0.00724332
0.00625191
0.00534115
0.00451428
0.00377275
0.00311646
0.0025441
0.00205346
0.00164192
0.00130685
0.00104598
0.000857948
0.000742829
0.000702687
0.000741628
0.000864798
0.00107594
0.00137323
0.00174553
0.00217551
0.00255019
0.0029088
0.0135765
0.0128576
0.0121107
0.0111619
0.0102203
0.0092783
0.00835054
0.00744931
0.00658369
0.00576172
0.00499042
0.00427576
0.00362265
0.00303468
0.00251396
0.0020612
0.00167581
0.00135621
0.00110017
0.000905388
0.000770146
0.000693985
0.000677959
0.000724019
0.000833452
0.00100462
0.00123101
0.0015049
0.00175057
0.00199023
0.0115509
0.0109735
0.0103643
0.00962024
0.00889471
0.00817011
0.00744826
0.00673379
0.00603173
0.00534877
0.00469251
0.0040708
0.00349113
0.00295997
0.00248231
0.00206134
0.00169837
0.00139303
0.00114365
0.000947781
0.000802823
0.000706578
0.000657427
0.000654032
0.000694796
0.000777394
0.00089849
0.00105639
0.00120782
0.0013584
0.009984
0.00951809
0.00901737
0.00842695
0.00785749
0.00729049
0.00672004
0.00614597
0.00557002
0.00499697
0.00443393
0.00388931
0.0033719
0.00288993
0.0024503
0.00205798
0.00171583
0.00142464
0.0011835
0.000990277
0.0008421
0.000735756
0.000667823
0.00063467
0.000632653
0.000658651
0.000710652
0.000788813
0.000871872
0.000958344
0.00878983
0.00840926
0.00799233
0.0075146
0.00705609
0.00659995
0.00613799
0.00566693
0.00518617
0.00469862
0.00421027
0.0037292
0.00326452
0.00282531
0.00241957
0.00205347
0.00173102
0.001454
0.00122225
0.00103406
0.000886554
0.000775969
0.000697855
0.000647355
0.000619767
0.00061149
0.000620491
0.000646796
0.000682404
0.000723919
0.00788444
0.00756642
0.00721108
0.00681415
0.00643435
0.00605639
0.00567217
0.00527648
0.0048673
0.00444602
0.00401734
0.00358854
0.00316848
0.00276642
0.00239088
0.00204876
0.00174485
0.0014817
0.00125978
0.00107778
0.000932926
0.000821239
0.000737835
0.000677391
0.000634849
0.000606269
0.000589383
0.000583375
0.000587345
0.000599545
0.00719496
0.00692141
0.00661148
0.00627271
0.00594879
0.00562655
0.00529814
0.00495771
0.0046024
0.00423243
0.00385134
0.00346545
0.00308306
0.00271319
0.00236447
0.00204414
0.00175746
0.00150751
0.00129526
0.00111974
0.000978336
0.000867101
0.000781097
0.000714965
0.000663647
0.000623039
0.000590579
0.000564776
0.000548298
0.000542623
0.00666546
0.00642386
0.00614769
0.00585072
0.00556711
0.00528493
0.00499702
0.00469733
0.00438261
0.0040523
0.00370901
0.00335822
0.00300749
0.0026654
0.00234037
0.00203965
0.00176874
0.00153105
0.0013279
0.00115861
0.00102079
0.000910667
0.000823464
0.000754007
0.000697401
0.000649479
0.000607465
0.000569452
0.000539973
0.000523707
0.00625509
0.00603725
0.00578667
0.00552077
0.00526627
0.00501301
0.00475455
0.00448499
0.00420079
0.00390099
0.00358759
0.00326533
0.00294109
0.00262282
0.00231851
0.00203525
0.00177856
0.00155201
0.00135714
0.00119355
0.00105908
0.000950214
0.000862466
0.000790935
0.000730934
0.000678358
0.000630195
0.000584633
0.00054691
0.000524528
0.00593524
0.00573532
0.00550457
0.00526215
0.00502906
0.00479703
0.00456
0.00431254
0.00405109
0.00377458
0.00348463
0.00318546
0.00288322
0.0025852
0.00229885
0.00203092
0.00178683
0.00157018
0.00138267
0.00122409
0.00109256
0.000984819
0.000896724
0.000823695
0.000761262
0.000705394
0.000653238
0.000603021
0.000560171
0.000534566
0.00568566
0.0054996
0.00528466
0.00506038
0.00484338
0.00462671
0.00440502
0.00417343
0.00392864
0.00366971
0.00339806
0.00311743
0.00283333
0.00255234
0.00228133
0.00202667
0.00179355
0.00158554
0.00140441
0.00125011
0.00112099
0.00101408
0.000925534
0.000851128
0.000786656
0.000728377
0.000673608
0.000620604
0.000574749
0.000547863
0.0054916
0.0053167
0.00511471
0.00490451
0.00469948
0.00449388
0.00428277
0.00406223
0.00382939
0.00358355
0.00332606
0.00306021
0.00279088
0.00252402
0.00226592
0.00202254
0.00179881
0.00159819
0.00142246
0.0012717
0.00114444
0.00103796
0.000948721
0.000872864
0.000806513
0.000746373
0.000689853
0.000635304
0.000587934
0.000561041
0.00534237
0.00517662
0.00498528
0.00478602
0.00458972
0.00439176
0.00418763
0.00397442
0.00374998
0.00351378
0.0032671
0.00301285
0.00275537
0.00250002
0.00225259
0.00201862
0.00180276
0.00160832
0.00143704
0.00128908
0.00116311
0.00105664
0.000966425
0.000888966
0.000820856
0.000759178
0.000701465
0.000646191
0.000598299
0.000572165
0.00523007
0.00507169
0.00488891
0.00469803
0.00450783
0.00431473
0.00411512
0.00390645
0.0036877
0.00345844
0.00321981
0.00297445
0.00272626
0.0024801
0.00224131
0.00201502
0.00180559
0.00161617
0.00144843
0.00130253
0.00117728
0.00107041
0.000978977
0.000899838
0.000830035
0.000767027
0.000708488
0.000652998
0.000605181
0.000580105
0.00514849
0.00499591
0.00481982
0.00463512
0.00444898
0.00425876
0.00406174
0.00385571
0.00364051
0.00341594
0.00318304
0.00294422
0.00270306
0.00246403
0.00223202
0.00201182
0.00180749
0.00162198
0.00145686
0.00131232
0.00118725
0.00107962
0.00098678
0.000905962
0.000834519
0.000770331
0.000711187
0.000655763
0.000608319
0.000584233
0.00509264
0.00494449
0.00477361
0.00459334
0.00440966
0.00422087
0.00402502
0.00382026
0.0036068
0.003385
0.00315578
0.00292143
0.00268532
0.00245156
0.00222468
0.0020091
0.0018086
0.00162594
0.00146258
0.00131869
0.0011933
0.00108456
0.000990162
0.000907647
0.000834699
0.000769464
0.000709823
0.000654612
0.000607671
0.000584305
0.00505838
0.00491365
0.00474688
0.00456986
0.00438751
0.00419905
0.00400317
0.00379864
0.00358537
0.00336461
0.00313725
0.00290553
0.00267266
0.00244249
0.00221921
0.00200689
0.00180903
0.00162819
0.00146573
0.00132183
0.00119561
0.00108547
0.00098938
0.000905186
0.000830831
0.000764553
0.000704633
0.000649742
0.000603354
0.000580367
0.0050423
0.00490043
0.00473704
0.00456252
0.00438088
0.00419196
0.00399511
0.00378972
0.00357535
0.00335402
0.00312687
0.00289609
0.00266481
0.00243668
0.00221555
0.0020052
0.00180884
0.00162882
0.00146642
0.00132184
0.00119433
0.0010825
0.000984592
0.000898731
0.000823109
0.000756017
0.000695915
0.000641427
0.000595627
0.000572642
0.00504147
0.00490243
0.0047421
0.00456971
0.00438854
0.00419861
0.00400002
0.00379269
0.00357613
0.00335274
0.00312426
0.00289285
0.00266161
0.00243402
0.00221368
0.00200403
0.00180804
0.00162786
0.00146471
0.00131879
0.00118951
0.00107572
0.000975897
0.000888412
0.000811692
0.000744001
0.000683905
0.000629977
0.000584829
0.000561503
0.00505322
0.00491747
0.00476028
0.00458999
0.00440932
0.00421833
0.0040173
0.00380697
0.00358732
0.00336048
0.00312924
0.00289573
0.00266303
0.00243452
0.00221356
0.00200334
0.00180658
0.00162527
0.00146054
0.00131265
0.00118118
0.00106518
0.000963378
0.000874362
0.000796651
0.000728687
0.000668908
0.000615713
0.000571358
0.000547397
0.0050749
0.00494338
0.00478995
0.00462217
0.0044422
0.00425015
0.00404638
0.00383224
0.00360868
0.00337722
0.00314188
0.00290485
0.0026692
0.00243826
0.00221524
0.0020031
0.00180438
0.00162092
0.00145381
0.00130336
0.00116931
0.00105091
0.000947132
0.000856704
0.000778229
0.000710297
0.00065108
0.000598984
0.000555644
0.000530848
0.00510383
0.00497792
0.00482946
0.00466504
0.00448645
0.00429338
0.00408676
0.00386834
0.0036401
0.0034032
0.0031625
0.00292055
0.00268042
0.00244545
0.00221877
0.00200324
0.00180125
0.00161458
0.00144428
0.00129074
0.00115382
0.00103297
0.000927303