/*--------------------------------*- C++ -*----------------------------------*\
  =========                 |
  \\      /  F ield         | OpenFOAM: The Open Source CFD Toolbox
   \\    /   O peration     | Website:  https://openfoam.org
    \\  /    A nd           | Version:  12
     \\/     M anipulation  |
\*---------------------------------------------------------------------------*/
FoamFile
{
    format      ascii;
    class       volVectorField;
    location    "240";
    object      U;
}
// * * * * * * * * * * * * * * * * * * * * * * * * * * * * * * * * * * * * * //

dimensions      [0 1 -1 0 0 0 0];

internalField   nonuniform List<vector> 
6750
(
(0.200065 -0.00312053 0)
(0.200334 -0.00958844 0)
(0.200601 -0.0155813 0)
(0.200832 -0.0211566 0)
(0.200689 -0.0263967 0)
(0.200037 -0.00347813 0)
(0.200271 -0.0101447 0)
(0.200458 -0.0160522 0)
(0.200516 -0.0213264 0)
(0.200374 -0.02604 0)
(0.200026 -0.00363725 0)
(0.200122 -0.0103567 0)
(0.200123 -0.0161211 0)
(0.19998 -0.0210917 0)
(0.19971 -0.0253519 0)
(0.20001 -0.003668 0)
(0.199953 -0.0102921 0)
(0.199761 -0.0158483 0)
(0.199437 -0.0205368 0)
(0.199037 -0.0244789 0)
(0.199996 -0.00359776 0)
(0.199798 -0.00999854 0)
(0.199422 -0.015292 0)
(0.198921 -0.0197072 0)
(0.198376 -0.0233923 0)
(0.199984 -0.00344424 0)
(0.199656 -0.00951115 0)
(0.199104 -0.0144864 0)
(0.198422 -0.0186124 0)
(0.197713 -0.0220481 0)
(0.199974 -0.00322195 0)
(0.199524 -0.00885749 0)
(0.198799 -0.0134563 0)
(0.197931 -0.0172611 0)
(0.197044 -0.0204295 0)
(0.199965 -0.00294194 0)
(0.199398 -0.00806033 0)
(0.198505 -0.0122253 0)
(0.197451 -0.0156692 0)
(0.196378 -0.018541 0)
(0.199956 -0.00261378 0)
(0.199281 -0.00714212 0)
(0.198227 -0.010821 0)
(0.196995 -0.0138643 0)
(0.195739 -0.0164068 0)
(0.199949 -0.00224721 0)
(0.199175 -0.00612738 0)
(0.197976 -0.00927721 0)
(0.196579 -0.011885 0)
(0.195152 -0.0140681 0)
(0.199943 -0.00185254 0)
(0.199084 -0.00504284 0)
(0.197758 -0.00763216 0)
(0.196219 -0.00977792 0)
(0.194641 -0.0115775 0)
(0.199938 -0.00144041 0)
(0.199011 -0.00391611 0)
(0.197583 -0.00592636 0)
(0.195927 -0.00759344 0)
(0.194226 -0.00899349 0)
(0.199935 -0.00102112 0)
(0.198957 -0.00277406 0)
(0.197453 -0.00419948 0)
(0.195712 -0.00538149 0)
(0.193918 -0.00637499 0)
(0.199931 -0.000603878 0)
(0.198926 -0.00164139 0)
(0.197371 -0.00248755 0)
(0.195574 -0.00318768 0)
(0.19372 -0.00377629 0)
(0.199921 -0.000200415 0)
(0.198921 -0.000537629 0)
(0.197334 -0.000819201 0)
(0.19551 -0.00105002 0)
(0.193626 -0.00124387 0)
(0.199921 0.000200426 0)
(0.198921 0.000537736 0)
(0.197334 0.000819443 0)
(0.19551 0.00105041 0)
(0.193626 0.0012444 0)
(0.199931 0.00060389 0)
(0.198926 0.0016415 0)
(0.197371 0.0024878 0)
(0.195574 0.00318807 0)
(0.19372 0.00377683 0)
(0.199935 0.00102113 0)
(0.198957 0.00277417 0)
(0.197453 0.00419972 0)
(0.195712 0.00538189 0)
(0.193918 0.00637553 0)
(0.199938 0.00144042 0)
(0.199011 0.00391622 0)
(0.197583 0.0059266 0)
(0.195927 0.00759383 0)
(0.194226 0.00899403 0)
(0.199943 0.00185255 0)
(0.199084 0.00504296 0)
(0.197758 0.00763241 0)
(0.196219 0.00977831 0)
(0.194641 0.011578 0)
(0.199949 0.00224722 0)
(0.199175 0.0061275 0)
(0.197976 0.00927746 0)
(0.196579 0.0118854 0)
(0.195152 0.0140686 0)
(0.199956 0.00261379 0)
(0.199281 0.00714223 0)
(0.198227 0.0108213 0)
(0.196995 0.0138647 0)
(0.195739 0.0164073 0)
(0.199965 0.00294195 0)
(0.199398 0.00806046 0)
(0.198505 0.0122255 0)
(0.197451 0.0156696 0)
(0.196378 0.0185415 0)
(0.199974 0.00322197 0)
(0.199524 0.00885762 0)
(0.198799 0.0134566 0)
(0.197931 0.0172615 0)
(0.197044 0.0204301 0)
(0.199984 0.00344427 0)
(0.199656 0.00951129 0)
(0.199104 0.0144867 0)
(0.198422 0.0186129 0)
(0.197713 0.0220487 0)
(0.199996 0.00359778 0)
(0.199798 0.00999868 0)
(0.199422 0.0152923 0)
(0.198921 0.0197077 0)
(0.198376 0.0233929 0)
(0.20001 0.00366803 0)
(0.199953 0.0102923 0)
(0.199761 0.0158486 0)
(0.199437 0.0205373 0)
(0.199037 0.0244796 0)
(0.200026 0.00363729 0)
(0.200122 0.0103569 0)
(0.200123 0.0161214 0)
(0.19998 0.0210923 0)
(0.19971 0.0253527 0)
(0.200037 0.00347817 0)
(0.200271 0.0101449 0)
(0.200458 0.0160526 0)
(0.200516 0.021327 0)
(0.200373 0.0260408 0)
(0.200065 0.00312058 0)
(0.200334 0.00958866 0)
(0.200601 0.0155818 0)
(0.200831 0.0211572 0)
(0.200689 0.0263976 0)
(0.19851 -0.0381706 0)
(0.196771 -0.0437658 0)
(0.19529 -0.0488907 0)
(0.194259 -0.0534918 2.81276e-22)
(0.193531 -0.0574575 0)
(0.193048 -0.0607267 0)
(0.192799 -0.0632332 -1.92564e-20)
(0.192771 -0.0648815 1.94263e-20)
(0.192944 -0.0655545 1.57725e-22)
(0.193246 -0.0651975 1.00997e-20)
(0.19365 -0.0636826 1.92312e-23)
(0.194077 -0.0608567 -1.25782e-23)
(0.194448 -0.0567897 -5.20075e-21)
(0.194679 -0.0515509 -5.16118e-21)
(0.194696 -0.045284 -1.20512e-20)
(0.194444 -0.0381988 1.20555e-20)
(0.193893 -0.0305549 -4.83799e-21)
(0.193043 -0.022633 -4.4897e-21)
(0.191923 -0.0147146 3.11646e-22)
(0.190583 -0.00705505 3.53748e-22)
(0.189074 0.000135242 8.62164e-21)
(0.187472 0.00674158 -1.27036e-22)
(0.185861 0.0126403 1.47551e-20)
(0.184299 0.0177745 -1.46246e-20)
(0.182838 0.0221335 0)
(0.181518 0.0257382 0)
(0.180369 0.0286298 -1.85687e-22)
(0.179418 0.030861 0)
(0.178683 0.0324867 0)
(0.178156 0.0335326 0)
(0.197622 -0.041532 0)
(0.196045 -0.0470371 0)
(0.194851 -0.0517291 0)
(0.194008 -0.0558193 -2.65846e-22)
(0.193399 -0.0592942 0)
(0.19301 -0.0621133 0)
(0.19284 -0.0642057 1.91752e-20)
(0.192875 -0.0654741 -1.96362e-20)
(0.19309 -0.0658099 -1.48455e-22)
(0.193415 -0.065181 0)
(0.193825 -0.0634223 0)
(0.194232 -0.0604518 -9.55e-21)
(0.194569 -0.0563326 9.58008e-21)
(0.194758 -0.0511357 0)
(0.194731 -0.044998 -3.21432e-20)
(0.194442 -0.038113 3.21435e-20)
(0.193865 -0.0307153 0)
(0.193003 -0.0230601 8.69373e-21)
(0.191885 -0.0153991 -8.73792e-21)
(0.190554 -0.00796316 0)
(0.189072 -0.000942508 0)
(0.1875 0.00554207 1.19177e-22)
(0.185903 0.0113812 -1.41667e-20)
(0.184348 0.0165171 1.42735e-20)
(0.182883 0.0209313 0)
(0.181544 0.0246354 0)
(0.180362 0.0276617 1.74859e-22)
(0.179357 0.0300557 0)
(0.178554 0.0318758 0)
(0.177962 0.0331977 0)
(0.196785 -0.0441212 0)
(0.195527 -0.0491158 0)
(0.194514 -0.0533893 0)
(0.193763 -0.0571458 1.95698e-20)
(0.193228 -0.0603385 -1.9787e-20)
(0.192911 -0.0629036 2.06582e-20)
(0.192808 -0.0647584 -2.08524e-20)
(0.1929 -0.0658048 3.21286e-22)
(0.193159 -0.0659427 0)
(0.193515 -0.0651469 0)
(0.19394 -0.063231 -3.20714e-22)
(0.194342 -0.0601658 0)
(0.194657 -0.0560024 0)
(0.194808 -0.0508144 -7.59207e-23)
(0.19473 -0.0447363 -5.29105e-20)
(0.194379 -0.0379547 5.29109e-20)
(0.193738 -0.0306926 7.02499e-23)
(0.192812 -0.0231903 0)
(0.191633 -0.0156839 0)
(0.190248 -0.00838804 2.54463e-22)
(0.188718 -0.00147996 0)
(0.187107 0.00490446 0)
(0.185477 0.010679 -2.36037e-22)
(0.18389 0.015787 -1.37531e-20)
(0.182392 0.0202073 1.3625e-20)
(0.181021 0.023947 -1.26346e-20)
(0.179799 0.0270329 1.24772e-20)
(0.178746 0.029503 0)
(0.177893 0.0314153 0)
(0.177316 0.0329142 0)
(0.196046 -0.0464479 0)
(0.195012 -0.0510229 -4.23711e-20)
(0.194103 -0.0549619 2.13644e-20)
(0.193421 -0.058426 4.44033e-20)
(0.192956 -0.06135 -4.49408e-20)
(0.192708 -0.0636621 2.23541e-20)
(0.192666 -0.0652772 0)
(0.192816 -0.0660996 7.01857e-22)
(0.193111 -0.0660466 0)
(0.193507 -0.0650735 0)
(0.193948 -0.0630052 1.13783e-20)
(0.19435 -0.059848 -1.07531e-20)
(0.194646 -0.0556414 0)
(0.194756 -0.0504626 7.97068e-23)
(0.194619 -0.0444442 -7.32661e-20)
(0.194193 -0.0377658 7.32665e-20)
(0.193464 -0.0306396 -7.37531e-23)
(0.192443 -0.023292 0)
(0.191165 -0.0159448 -8.49684e-21)
(0.189683 -0.00879849 7.93762e-21)
(0.188062 -0.00201975 2.42869e-22)
(0.186367 0.00426433 0)
(0.184663 0.00996835 -4.44709e-22)
(0.183009 0.0150399 0)
(0.181451 0.0194575 1.29933e-20)
(0.180026 0.0232258 -2.47587e-20)
(0.178754 0.0263669 2.33998e-20)
(0.17765 0.028912 1.04989e-20)
(0.176744 0.0309147 -2.16799e-20)
(0.176202 0.0325905 0)
(0.195288 -0.048664 0)
(0.194389 -0.0528747 4.75556e-20)
(0.193562 -0.0565015 -4.67314e-20)
(0.192952 -0.0596774 0)
(0.192556 -0.0623325 0)
(0.192372 -0.0643912 7.60906e-22)
(0.192389 -0.065767 0)
(0.192592 -0.0663652 -7.35383e-22)
(0.192925 -0.066125 1.16106e-20)
(0.193356 -0.0649663 -1.17701e-20)
(0.193809 -0.0627497 -1.16285e-20)
(0.194209 -0.0594958 1.13271e-20)
(0.194481 -0.0552408 3.38078e-22)
(0.194546 -0.0500646 -1.632e-22)
(0.194342 -0.0440982 -9.32301e-20)
(0.19383 -0.0375156 9.32305e-20)
(0.192998 -0.0305193 1.44427e-22)
(0.191863 -0.0233234 -2.76404e-22)
(0.190466 -0.016136 8.4924e-21)
(0.188864 -0.00914454 -8.18573e-21)
(0.187124 -0.00250477 -8.04566e-21)
(0.185318 0.00366499 7.73557e-21)
(0.183512 0.00928335 4.66053e-22)
(0.181765 0.0143014 0)
(0.180125 0.0186987 -4.01869e-22)
(0.178626 0.0224784 0)
(0.17729 0.0256594 0)
(0.176125 0.0282668 -2.22526e-20)
(0.17516 0.0303486 2.12818e-20)
(0.174646 0.0321922 0)
(0.194434 -0.0507708 4.89458e-20)
(0.19362 -0.0546334 -7.69434e-20)
(0.192868 -0.0579607 2.53512e-20)
(0.192328 -0.0608596 0)
(0.191999 -0.0632557 2.56364e-20)
(0.191875 -0.0650697 -2.51054e-20)
(0.191946 -0.0662136 2.46942e-20)
(0.192199 -0.066596 -2.55867e-20)
(0.192568 -0.0661713 0)
(0.193027 -0.0648252 -7.73502e-22)
(0.193488 -0.0624639 1.18486e-20)
(0.19388 -0.0591097 -6.16507e-21)
(0.194121 -0.0547994 -9.29258e-22)
(0.194133 -0.0496157 -5.38717e-21)
(0.193855 -0.0436891 -1.1283e-19)
(0.193249 -0.037189 1.12827e-19)
(0.192307 -0.0303099 -4.81731e-21)
(0.19105 -0.0232554 7.70477e-22)
(0.189522 -0.0162217 -4.05957e-21)
(0.187787 -0.00938413 8.45133e-21)
(0.185916 -0.00288776 4.79685e-22)
(0.183983 0.00315728 0)
(0.182058 0.00867539 -1.41198e-20)
(0.180201 0.0136218 1.43991e-20)
(0.17846 0.017978 -1.32612e-20)
(0.176872 0.0217471 1.27344e-20)
(0.175457 0.0249458 7.25787e-22)
(0.174221 0.0275946 1.11941e-20)
(0.173187 0.0297353 -3.26797e-20)
(0.172683 0.0317221 2.30672e-20)
(0.193439 -0.052752 -2.56328e-20)
(0.192678 -0.0562804 2.89533e-20)
(0.191996 -0.0593263 2.89965e-20)
(0.191522 -0.0619637 -2.94025e-20)
(0.191254 -0.0641129 2.74841e-20)
(0.191186 -0.0656914 -2.95354e-20)
(0.19131 -0.0666118 -8.8351e-22)
(0.191606 -0.0667872 0)
(0.192008 -0.0661776 1.30604e-20)
(0.192487 -0.0646451 3.72066e-22)
(0.19295 -0.062141 3.2144e-22)
(0.193326 -0.0586829 -1.28853e-20)
(0.19353 -0.0543104 -5.38517e-21)
(0.193482 -0.0491093 8.5196e-21)
(0.193124 -0.0432101 -1.34538e-19)
(0.19242 -0.0367789 1.29298e-19)
(0.191364 -0.0300038 7.2013e-21)
(0.189981 -0.0230792 -5.27817e-21)
(0.188321 -0.016191 -8.48831e-21)
(0.186448 -0.00950365 -1.20476e-22)
(0.18444 -0.00315239 -1.62477e-22)
(0.182373 0.00276087 7.60749e-21)
(0.18032 0.00816688 0)
(0.178342 0.0130255 3.84235e-22)
(0.17649 0.0173209 -1.19073e-20)
(0.1748 0.0210573 1.25826e-20)
(0.173294 0.0242504 -1.16645e-20)
(0.171975 0.0269176 1.07738e-20)
(0.170864 0.0290951 1.06601e-20)
(0.170347 0.0311936 -1.20795e-20)
(0.192265 -0.0546033 0)
(0.191538 -0.0578161 2.72128e-20)
(0.190918 -0.0606003 -3.31421e-20)
(0.190505 -0.0629909 3.12213e-20)
(0.190294 -0.0649039 -2.98132e-20)
(0.190279 -0.0662549 2.73686e-20)
(0.190453 -0.0669582 -2.77171e-20)
(0.190783 -0.0669352 -1.80805e-21)
(0.191216 -0.0661335 -8.84945e-22)
(0.191707 -0.0644182 -8.63088e-22)
(0.192165 -0.061772 -8.31847e-22)
(0.192518 -0.0582059 4.01028e-22)
(0.192677 -0.0537646 -6.34903e-21)
(0.192564 -0.0485371 3.15127e-21)
(0.192121 -0.0426544 -1.47463e-19)
(0.191315 -0.0362802 1.52831e-19)
(0.190145 -0.029597 2.24099e-21)
(0.188638 -0.0227917 -4.17653e-21)
(0.186845 -0.0160408 2.65145e-22)
(0.184837 -0.00949935 1.02449e-21)
(0.182693 -0.00329319 4.70025e-22)
(0.180492 0.00248368 4.4453e-22)
(0.178309 0.00776841 8.43736e-22)
(0.176207 0.0125257 -1.39418e-20)
(0.174237 0.0167433 1.36956e-20)
(0.172438 0.0204268 -1.19862e-20)
(0.170833 0.0235921 1.10694e-20)
(0.169422 0.0262551 -9.67396e-21)
(0.168225 0.0284475 1.15794e-20)
(0.167673 0.0306246 0)
(0.190877 -0.0563259 0)
(0.19017 -0.059243 1.97617e-21)
(0.189607 -0.0617835 -2.73923e-20)
(0.189251 -0.0639402 4.15407e-22)
(0.189094 -0.0656258 3.18807e-20)
(0.189129 -0.066756 1.94816e-21)
(0.189349 -0.0672454 1.9487e-21)
(0.189704 -0.0670308 -1.30351e-20)
(0.190164 -0.0660306 1.61073e-20)
(0.190658 -0.0641381 -4.95967e-24)
(0.191106 -0.061347 -6.82231e-21)
(0.191427 -0.0576686 6.86329e-21)
(0.191534 -0.0531524 -2.69192e-21)
(0.19135 -0.0478907 3.10092e-21)
(0.19082 -0.0420154 -1.68237e-19)
(0.189913 -0.035688 1.68236e-19)
(0.18863 -0.0290866 2.40565e-21)
(0.187001 -0.0223911 -2.69456e-21)
(0.185081 -0.0157701 3.939e-21)
(0.182943 -0.00936969 -5.20834e-21)
(0.180668 -0.00330734 -2.9251e-23)
(0.178337 0.00233051 7.02773e-21)
(0.176027 0.00748732 -7.86931e-21)
(0.173802 0.0121327 -7.8215e-22)
(0.171714 0.016258 -8.02013e-22)
(0.169804 0.0198711 1.17033e-20)
(0.168093 0.0229886 -3.29918e-22)
(0.166585 0.0256259 -1.23817e-20)
(0.165296 0.0278126 0)
(0.164689 0.0300351 0)
(0.18924 -0.0579222 0)
(0.188546 -0.0605622 -3.5282e-20)
(0.188037 -0.0628744 4.09938e-22)
(0.187734 -0.0648079 5.22148e-22)
(0.187627 -0.0662736 6.52414e-20)
(0.187709 -0.0671882 -3.38407e-20)
(0.187967 -0.0674686 -2.03652e-21)
(0.188347 -0.0670619 0)
(0.188824 -0.0658606 1.44406e-20)
(0.189315 -0.0637929 -1.46444e-20)
(0.189745 -0.0608546 7.13251e-21)
(0.190028 -0.0570604 -3.99118e-22)
(0.190077 -0.0524643 -6.81117e-21)
(0.189819 -0.0471622 1.92519e-22)
(0.189199 -0.0412869 -1.85512e-19)
(0.188191 -0.0349983 1.85595e-19)
(0.186798 -0.0284703 -1.54024e-22)
(0.185053 -0.0218769 -4.50286e-21)
(0.183013 -0.015379 2.93449e-22)
(0.180753 -0.00911491 5.1672e-21)
(0.178356 -0.0031943 -7.80172e-21)
(0.175903 0.00230351 7.21832e-21)
(0.173472 0.00732795 0)
(0.171129 0.0118535 8.1748e-22)
(0.168927 0.015875 -1.18257e-20)
(0.166906 0.0194031 2.36695e-20)
(0.16509 0.0224555 -3.06613e-22)
(0.163481 0.025048 5.54655e-22)
(0.162097 0.0272096 -1.03561e-20)
(0.161418 0.0294463 0)
(0.187323 -0.0593941 -4.54483e-21)
(0.186637 -0.0617738 0)
(0.186179 -0.06387 -2.21876e-21)
(0.185928 -0.065589 3.3354e-20)
(0.185868 -0.0668406 -3.62554e-20)
(0.185992 -0.0675437 3.50534e-20)
(0.186283 -0.0676201 -3.53527e-20)
(0.186687 -0.0670154 -1.66956e-20)
(0.187172 -0.0656126 3.53057e-20)
(0.187654 -0.0633707 2.10436e-22)
(0.188057 -0.0602834 -1.47944e-20)
(0.188296 -0.0563702 7.04495e-21)
(0.188283 -0.0516905 -3.77308e-21)
(0.187947 -0.0463435 -5.06327e-21)
(0.187237 -0.0404629 -2.00575e-19)
(0.18613 -0.0342072 2.03347e-19)
(0.184631 -0.0277465 -3.59652e-21)
(0.182777 -0.021249 -2.06256e-21)
(0.180626 -0.0148689 4.46951e-21)
(0.178254 -0.00873693 -8.66355e-21)
(0.175744 -0.00295566 3.16637e-23)
(0.17318 0.00240215 1.28832e-20)
(0.170638 0.00729157 -6.59829e-21)
(0.168185 0.0116917 -1.18955e-20)
(0.165875 0.0156009 1.17308e-20)
(0.163749 0.0190324 -1.09053e-20)
(0.161829 0.0220053 1.12929e-20)
(0.16012 0.0245364 -5.98587e-22)
(0.15864 0.0266557 0)
(0.157877 0.0288785 1.42788e-21)
(0.185092 -0.0607427 4.72666e-21)
(0.184415 -0.0628762 -4.00753e-20)
(0.184007 -0.064766 3.84138e-20)
(0.183804 -0.066277 2.3663e-21)
(0.183789 -0.0673185 2.35727e-21)
(0.183956 -0.0678114 0)
(0.184267 -0.0676885 -2.3071e-21)
(0.184694 -0.0668777 -1.98946e-20)
(0.18518 -0.0652757 3.38924e-20)
(0.185648 -0.062859 -1.83074e-20)
(0.18602 -0.0596209 -1.00235e-21)
(0.186208 -0.0555869 7.31259e-21)
(0.186129 -0.0508213 -7.35188e-21)
(0.185713 -0.0454268 -2.04112e-22)
(0.184914 -0.0395379 -2.1766e-19)
(0.18371 -0.0333116 2.17573e-19)
(0.182112 -0.0269142 1.56229e-22)
(0.180156 -0.0205085 -4.46584e-21)
(0.177903 -0.0142421 4.44203e-21)
(0.17543 -0.00823888 5.02007e-22)
(0.17282 -0.00259469 -6.44554e-21)
(0.170156 0.00262381 1.36795e-20)
(0.167515 0.00737692 -5.60489e-21)
(0.164962 0.011648 6.84033e-22)
(0.162553 0.0154388 0)
(0.160328 0.0187648 -6.81876e-22)
(0.15831 0.0216469 -6.51675e-22)
(0.156504 0.0241031 9.63596e-21)
(0.15493 0.0261655 -8.82823e-21)
(0.154077 0.02835 -1.48499e-21)
(0.182515 -0.0619672 0)
(0.181848 -0.0638656 -5.62045e-23)
(0.181489 -0.0655555 4.01985e-20)
(0.181334 -0.0668627 -4.09775e-20)
(0.181364 -0.0676967 -3.9767e-20)
(0.181566 -0.0679806 6.2094e-20)
(0.181901 -0.0676582 -1.73169e-20)
(0.182343 -0.0666354 -2.23736e-23)
(0.182825 -0.0648368 -2.30776e-21)
(0.183273 -0.0622439 0)
(0.183607 -0.0588541 -8.08861e-21)
(0.18374 -0.0546986 1.57296e-20)
(0.183592 -0.0498468 -7.62333e-21)
(0.183097 -0.0444043 2.13582e-22)
(0.182209 -0.0385064 -2.32266e-19)
(0.180914 -0.0323082 2.32353e-19)
(0.179221 -0.0259725 -1.63476e-22)
(0.177173 -0.0196565 -4.42011e-21)
(0.174829 -0.0135015 8.39527e-21)
(0.172266 -0.0076248 -3.9703e-21)
(0.169568 -0.0021159 0)
(0.166817 0.0029642 7.48509e-22)
(0.164089 0.00758059 -7.65832e-23)
(0.161449 0.0117205 -6.00282e-21)
(0.158951 0.0153888 1.4607e-20)
(0.156637 0.0186032 -9.8282e-21)
(0.154528 0.021386 -9.06425e-21)
(0.152631 0.0237567 9.47308e-21)
(0.150968 0.02575 -6.5188e-23)
(0.15002 0.0278762 0)
(0.179558 -0.0630645 0)
(0.178904 -0.0647355 -3.97423e-20)
(0.178594 -0.0662292 4.32874e-20)
(0.178489 -0.0673351 3.97049e-20)
(0.178561 -0.0679626 -4.32314e-20)
(0.178796 -0.0680395 -2.31539e-20)
(0.179154 -0.0675117 8.25788e-22)
(0.179605 -0.0662741 2.29771e-20)
(0.180078 -0.0642799 4.82968e-21)
(0.180502 -0.0615106 0)
(0.180794 -0.0579692 0)
(0.180869 -0.0536932 -6.82877e-21)
(0.18065 -0.0487567 8.36316e-21)
(0.180074 -0.043268 0)
(0.179101 -0.0373627 -2.45662e-19)
(0.177718 -0.0311942 2.4566e-19)
(0.17594 -0.0249209 0)
(0.173808 -0.0186947 4.07246e-21)
(0.171384 -0.0126505 -4.81733e-21)
(0.168745 -0.00689942 0)
(0.165972 -0.00152477 0)
(0.163148 0.00341768 -1.48003e-21)
(0.160346 0.00789743 4.51953e-21)
(0.157632 0.0119052 -3.02893e-22)
(0.155057 0.0154486 -4.15603e-21)
(0.152663 0.0185473 -8.61454e-21)
(0.150473 0.0212247 8.92917e-21)
(0.148492 0.023502 8.05688e-21)
(0.146746 0.0254169 -8.42439e-21)
(0.145705 0.0274689 0)
(0.176182 -0.0640289 0)
(0.175548 -0.0654744 0)
(0.175291 -0.066775 0)
(0.175235 -0.0676804 -4.19947e-20)
(0.175352 -0.0681003 2.05452e-20)
(0.175613 -0.0679726 2.51084e-20)
(0.175995 -0.067229 2.72219e-21)
(0.176451 -0.0657778 2.05156e-20)
(0.176913 -0.0635883 -1.14578e-21)
(0.177307 -0.0606431 -1.98882e-20)
(0.177553 -0.0569518 -1.13343e-21)
(0.177567 -0.0525581 -2.11518e-21)
(0.177276 -0.0475405 -4.69657e-21)
(0.176622 -0.0420098 3.51778e-21)
(0.175567 -0.0361016 -2.57536e-19)
(0.174102 -0.0299665 2.57544e-19)
(0.172246 -0.0237589 2.56347e-21)
(0.17004 -0.0176249 -1.83507e-21)
(0.167548 -0.0116931 9.90605e-22)
(0.164845 -0.00606814 4.15306e-22)
(0.162012 -0.000827719 -5.86537e-21)
(0.159129 0.00397739 6.40084e-22)
(0.156268 0.0083207 5.16966e-21)
(0.153492 0.0121961 -5.11444e-22)
(0.150854 0.0156134 3.55648e-21)
(0.148392 0.018594 4.03184e-21)
(0.14613 0.0211623 -7.8924e-21)
(0.144075 0.0233407 0)
(0.142254 0.0251703 0)
(0.141122 0.0271361 0)
(0.172349 -0.0648481 -4.76778e-20)
(0.171743 -0.0660698 5.02407e-20)
(0.171541 -0.0671779 0)
(0.171537 -0.067882 -2.36316e-20)
(0.171697 -0.0680926 2.68799e-20)
(0.171989 -0.0677571 2.27434e-20)
(0.172392 -0.0667907 -2.89969e-20)
(0.172849 -0.0651282 0)
(0.173296 -0.0627433 -2.64208e-21)
(0.173658 -0.0596238 0)
(0.173854 -0.055786 3.40136e-24)
(0.173806 -0.0512795 9.09776e-24)
(0.173443 -0.0461872 1.00252e-21)
(0.172712 -0.0406214 4.53914e-22)
(0.171579 -0.0347173 -2.68028e-19)
(0.17004 -0.0286225 2.68013e-19)
(0.168114 -0.0224865 -3.15443e-22)
(0.165846 -0.0164495 -5.48946e-22)
(0.163298 -0.0106335 -4.23321e-23)
(0.160546 -0.00513705 -4.51365e-23)
(0.157667 -3.20933e-05 0)
(0.154739 0.00463522 6.65469e-22)
(0.151833 0.00884206 0)
(0.14901 0.012585 -2.75491e-21)
(0.146321 0.015876 3.75033e-21)
(0.143804 0.0187374 2.68836e-21)
(0.141482 0.0211945 -3.07267e-21)
(0.139362 0.0232708 0)
(0.137474 0.0250103 6.87032e-21)
(0.136257 0.0268817 -7.2435e-21)
(0.168016 -0.0655057 0)
(0.167447 -0.0665047 7.0189e-23)
(0.167305 -0.0674192 5.33063e-20)
(0.167358 -0.0679192 -5.09858e-20)
(0.16756 -0.0679191 3.12286e-21)
(0.167886 -0.0673674 -6.1179e-21)
(0.168307 -0.0661751 2.97866e-21)
(0.168764 -0.0643025 0)
(0.169193 -0.0617238 0)
(0.169519 -0.0584333 0)
(0.169664 -0.0544547 1.22557e-21)
(0.169553 -0.0498431 -7.46896e-21)
(0.169118 -0.044685 1.20455e-20)
(0.168312 -0.0390941 -5.89373e-21)
(0.167107 -0.0332042 -2.74573e-19)
(0.165501 -0.0271595 2.77642e-19)
(0.163516 -0.0211038 -3.48675e-21)
(0.161197 -0.0151712 6.5143e-21)
(0.158607 -0.0094769 -4.38451e-21)
(0.155819 -0.00411311 -4.03392e-22)
(0.152909 0.000853652 -2.91886e-22)
(0.149952 0.00538169 0)
(0.147016 0.00945153 0)
(0.144161 0.0130621 -4.46308e-22)
(0.141435 0.0162268 6.83522e-22)
(0.138876 0.018969 -2.49973e-22)
(0.136505 0.0213141 -4.36742e-21)
(0.134331 0.0232868 4.06456e-21)
(0.132385 0.0249335 1.02721e-22)
(0.13109 0.0267052 0)
(0.163137 -0.0659792 -5.25781e-20)
(0.162613 -0.0667591 4.87471e-20)
(0.162537 -0.0674752 2.30566e-20)
(0.162652 -0.0677654 -2.68258e-20)
(0.1629 -0.0675535 -2.87651e-20)
(0.163262 -0.0667735 2.94936e-20)
(0.163699 -0.0653577 2.44576e-20)
(0.164154 -0.0632757 -2.18732e-20)
(0.164563 -0.0605058 1.25916e-20)
(0.164851 -0.0570502 -1.13074e-20)
(0.164943 -0.052939 1.0937e-20)
(0.164767 -0.0482328 -5.35661e-21)
(0.164264 -0.0430213 -3.92727e-21)
(0.163387 -0.0374186 2.31217e-22)
(0.162116 -0.0315564 -2.8224e-19)
(0.160451 -0.0255747 2.82218e-19)
(0.158417 -0.0196114 -1.45519e-22)
(0.156061 -0.0137933 -2.09687e-21)
(0.153443 -0.00822914 -1.21039e-21)
(0.150634 -0.00300444 3.02152e-21)
(0.147708 0.00181964 -1.69782e-21)
(0.144738 0.00620562 1.78241e-21)
(0.141788 0.0101371 -2.88023e-21)
(0.138915 0.0136149 2.54302e-21)
(0.136167 0.0166536 1.46615e-21)
(0.133579 0.019277 -1.46493e-21)
(0.131171 0.0215105 -1.30199e-21)
(0.128954 0.0233794 1.47784e-21)
(0.126961 0.0249321 4.5206e-21)
(0.125596 0.0266015 -4.32546e-21)
(0.157659 -0.0662413 -3.45581e-21)
(0.157187 -0.0668058 -5.47554e-20)
(0.157187 -0.0673152 6.02326e-20)
(0.157368 -0.0673906 0)
(0.157667 -0.0669588 -3.4631e-21)
(0.158066 -0.0659447 0)
(0.158519 -0.0643072 -3.31267e-21)
(0.158972 -0.0620178 2.4501e-20)
(0.159358 -0.0590622 -2.64051e-20)
(0.159605 -0.0554497 1.41376e-21)
(0.159643 -0.0512176 -2.61644e-21)
(0.159405 -0.0464311 -1.18756e-21)
(0.158834 -0.0411821 -5.41024e-22)
(0.157892 -0.0355848 -2.39997e-22)
(0.156561 -0.0297678 -2.85233e-19)
(0.154847 -0.0238658 2.85223e-19)
(0.152777 -0.0180102 1.51044e-22)
(0.150396 -0.0123203 2.49708e-22)
(0.147765 -0.00689749 -3.47339e-22)
(0.144952 -0.00182079 0)
(0.142028 0.00285402 -1.88069e-22)
(0.13906 0.00709352 -2.0712e-21)
(0.136113 0.010884 2.36622e-21)
(0.133238 0.014228 8.62176e-23)
(0.130482 0.0171408 0)
(0.127879 0.019646 -5.39956e-24)
(0.125447 0.0217689 0)
(0.123198 0.0235349 7.43299e-22)
(0.121168 0.0249939 -6.74535e-22)
(0.119741 0.0265605 1.71813e-22)
(0.151516 -0.066259 -5.44178e-20)
(0.151111 -0.0666045 5.71699e-20)
(0.151196 -0.066899 9.66654e-23)
(0.151445 -0.066756 3.21805e-20)
(0.151804 -0.066091 -5.40892e-20)
(0.15224 -0.0648437 3.25655e-20)
(0.15271 -0.0629862 3.40998e-21)
(0.153158 -0.060494 3.81639e-23)
(0.15352 -0.0573607 0)
(0.153726 -0.0536036 -1.46e-21)
(0.153709 -0.0492661 -7.52527e-21)
(0.153408 -0.0444177 1.15662e-20)
(0.152772 -0.0391521 5.38202e-22)
(0.15177 -0.0335819 -1.52765e-21)
(0.150389 -0.027832 -2.83093e-19)
(0.148637 -0.0220309 2.86097e-19)
(0.146543 -0.0163024 -1.35813e-21)
(0.144153 -0.0107579 -2.00862e-22)
(0.141526 -0.00549112 2.6354e-21)
(0.138726 -0.000574275 -2.25005e-21)
(0.13582 0.00394221 1.94218e-22)
(0.132874 0.00802878 0)
(0.129946 0.0116742 1.64753e-22)
(0.127087 0.0148823 -8.87495e-23)
(0.124339 0.0176685 -3.64643e-22)
(0.121734 0.0200562 1.25117e-21)
(0.119292 0.0220698 -5.50306e-22)
(0.117023 0.0237344 1.57785e-22)
(0.114965 0.025101 1.96833e-22)
(0.113486 0.0265658 -3.75152e-22)
(0.144634 -0.0659842 0)
(0.144312 -0.0661051 0)
(0.144488 -0.0661762 -3.38297e-20)
(0.144818 -0.065807 2.73401e-20)
(0.145239 -0.0649017 0)
(0.145715 -0.0634239 -3.66308e-21)
(0.146201 -0.0613495 -3.61182e-21)
(0.146644 -0.0586619 -3.40537e-21)
(0.146979 -0.0553631 0)
(0.147142 -0.051478 0)
(0.147069 -0.0470558 -1.38492e-21)
(0.146707 -0.0421696 5.28368e-21)
(0.146011 -0.0369135 -5.80707e-21)
(0.144956 -0.0313979 -2.41025e-22)
(0.143533 -0.0257424 -2.80657e-19)
(0.141755 -0.0200684 2.80722e-19)
(0.139652 -0.0144915 1.3476e-22)
(0.13727 -0.00911418 -9.27684e-22)
(0.134664 -0.00402202 1.29572e-21)
(0.131896 0.000719578 0)
(0.129029 0.00506561 0)
(0.126124 0.00899026 0)
(0.123234 0.0124845 0)
(0.120407 0.0155529 -2.56289e-22)
(0.117684 0.018211 -1.31194e-22)
(0.115094 0.0204812 0)
(0.112655 0.0223866 -2.55226e-21)
(0.110378 0.0239518 2.07329e-21)
(0.108304 0.0252279 0)
(0.106783 0.0265932 0)
(0.136921 -0.0653527 -3.9853e-21)
(0.136701 -0.0652411 0)
(0.136979 -0.0650846 0)
(0.137399 -0.0644748 0)
(0.137887 -0.0633299 0)
(0.138403 -0.0616241 0)
(0.138905 -0.0593397 3.68882e-21)
(0.13934 -0.0564689 1.78917e-21)
(0.139646 -0.0530223 -1.27667e-20)
(0.139763 -0.0490321 2.80586e-21)
(0.139634 -0.0445526 2.3976e-20)
(0.139213 -0.0396595 -1.61008e-20)
(0.138461 -0.0344462 7.02188e-22)
(0.13736 -0.0290195 4.08908e-21)
(0.135908 -0.0234925 -2.71611e-19)
(0.134118 -0.0179785 2.71568e-19)
(0.132023 -0.0125833 1.56185e-21)
(0.129667 -0.00740034 -5.56732e-22)
(0.127103 -0.00250645 -2.15867e-21)
(0.124389 0.00204011 1.41823e-21)
(0.121582 0.00619974 -6.03235e-22)
(0.118738 0.0099502 3.23094e-22)
(0.115907 0.0132843 1.91665e-22)
(0.113134 0.0162074 2.6175e-22)
(0.110453 0.0187342 0)
(0.107895 0.0208859 0)
(0.105475 0.0226838 0)
(0.103204 0.0241515 0)
(0.101125 0.0253394 0)
(0.0995708 0.026608 -3.57097e-22)
(0.128267 -0.0642775 8.20945e-21)
(0.128167 -0.0639273 -3.2766e-20)
(0.128562 -0.0635306 3.40438e-20)
(0.129079 -0.0626744 0)
(0.129635 -0.0612931 -3.20145e-20)
(0.130192 -0.0593657 3.6999e-20)
(0.130709 -0.0568835 -3.16822e-20)
(0.131131 -0.0538483 2.68049e-20)
(0.131404 -0.0502792 0)
(0.131473 -0.0462151 1.03938e-20)
(0.131288 -0.0417147 -2.88085e-21)
(0.130809 -0.0368548 -1.55898e-20)
(0.130008 -0.0317268 5.30591e-21)
(0.128871 -0.0264322 1.64435e-21)
(0.127402 -0.0210765 -2.58359e-19)
(0.125618 -0.0157631 2.55628e-19)
(0.12355 -0.0105875 9.50071e-22)
(0.121243 -0.005633 5.58611e-22)
(0.118744 -0.000967239 -1.0807e-21)
(0.116108 0.0033589 9.67085e-22)
(0.113385 0.00731124 -5.27201e-22)
(0.110628 0.010871 -2.51145e-22)
(0.10788 0.0140326 -4.92263e-21)
(0.105181 0.0168014 3.94319e-21)
(0.102565 0.0191914 -4.68229e-21)
(0.100057 0.0212218 5.31732e-21)
(0.0976725 0.0229119 0)
(0.0954232 0.0242833 -5.623e-21)
(0.0933518 0.0253853 5.44408e-21)
(0.0917759 0.0265603 9.61228e-22)
(0.118531 -0.0626354 2.61787e-20)
(0.118572 -0.0620391 -3.40802e-20)
(0.119097 -0.0613908 -3.00555e-20)
(0.119714 -0.0602913 3.57169e-20)
(0.12034 -0.0586796 3.7544e-20)
(0.120935 -0.0565433 -7.45742e-20)
(0.12146 -0.053884 5.22808e-20)
(0.121865 -0.0507132 -1.38437e-20)
(0.1221 -0.0470579 0)
(0.122118 -0.042963 -1.21222e-20)
(0.121876 -0.0384901 1.0903e-20)
(0.121343 -0.0337157 -6.2516e-22)
(0.1205 -0.0287276 -1.94373e-21)
(0.11934 -0.0236203 2.73636e-21)
(0.11787 -0.0184898 -2.3541e-19)
(0.116111 -0.0134284 2.34215e-19)
(0.114095 -0.0085201 8.59889e-22)
(0.111861 -0.00383711 -4.56247e-22)
(0.109456 0.000562488 -3.17024e-23)
(0.106926 0.00463547 -1.70028e-21)
(0.104317 0.00835309 1.71443e-21)
(0.101674 0.0116998 6.44832e-22)
(0.0990369 0.0146714 3.60469e-21)
(0.0964396 0.017273 -9.56407e-21)
(0.0939121 0.0195172 1.28293e-20)
(0.0914778 0.0214208 -6.32233e-21)
(0.0891499 0.0230004 -8.05455e-21)
(0.0869402 0.0242755 7.79677e-21)
(0.084892 0.0252932 6.5194e-21)
(0.0833066 0.0263771 -8.13144e-21)
(0.107527 -0.060245 4.09087e-20)
(0.107734 -0.0593924 4.80755e-21)
(0.108393 -0.058496 -5.72665e-21)
(0.109111 -0.0571599 -3.71739e-20)
(0.109803 -0.0553326 -4.34988e-21)
(0.110429 -0.0530119 6.39774e-21)
(0.110954 -0.0502098 5.73826e-23)
(0.111333 -0.0469471 0)
(0.111523 -0.0432582 0)
(0.111484 -0.0391924 -1.21645e-20)
(0.111186 -0.0348128 1.38469e-20)
(0.110605 -0.0301936 6.29617e-22)
(0.10973 -0.0254168 0)
(0.108562 -0.0205679 5.1909e-22)
(0.107112 -0.0157317 -2.05167e-19)
(0.105404 -0.0109879 2.041e-19)
(0.103468 -0.00640769 3.42157e-22)
(0.101341 -0.0020514 0)
(0.0990628 0.00203299 3.19283e-23)
(0.096674 0.00581011 -2.36752e-21)
(0.0942143 0.0092566 2.20989e-21)
(0.0917211 0.01236 -3.9227e-22)
(0.0892279 0.015117 0)
(0.0867645 0.0175322 1.68774e-22)
(0.0843564 0.0196162 1.79634e-21)
(0.0820239 0.0213831 -1.12399e-21)
(0.0797785 0.0228463 1.05501e-20)
(0.0776316 0.0240225 -1.33372e-23)
(0.0756265 0.0249555 4.39097e-22)
(0.0740474 0.025949 -8.18792e-21)
(0.095007 -0.0568249 -3.82314e-20)
(0.0953914 -0.0557249 3.27146e-20)
(0.0961836 -0.0545897 0)
(0.096995 -0.0530366 -3.40585e-20)
(0.0977406 -0.0510253 4.00643e-20)
(0.098384 -0.0485644 -1.9076e-20)
(0.098894 -0.045676 3.136e-20)
(0.0992344 -0.042389 -1.44591e-20)
(0.0993701 -0.0387439 0)
(0.0992721 -0.0347926 0)
(0.0989188 -0.0305973 5.92366e-21)
(0.098298 -0.0262277 -5.89568e-21)
(0.097407 -0.0217574 0)
(0.0962532 -0.0172609 1.9577e-22)
(0.0948526 -0.0128094 -1.64082e-19)
(0.0932289 -0.0084686 1.64048e-19)
(0.0914109 -0.00429558 -3.6224e-23)
(0.0894309 -0.000337978 0)
(0.0873225 0.00336678 1.21676e-21)
(0.0851191 0.0067913 -1.11859e-21)
(0.0828528 0.00991753 0)
(0.0805532 0.0127357 0)
(0.0782474 0.0152433 6.78198e-21)
(0.0759595 0.0174437 -1.27869e-20)
(0.0737105 0.0193449 5.4243e-21)
(0.0715172 0.0209581 -1.24118e-20)
(0.0693891 0.0222929 1.38435e-20)
(0.0673369 0.0233627 0)
(0.0654029 0.024207 -1.3001e-20)
(0.0638524 0.0251068 1.02733e-20)
(0.0806094 -0.051928 -3.75027e-20)
(0.0811702 -0.0506089 3.64784e-20)
(0.082078 -0.0492669 -3.86655e-20)
(0.0829591 -0.0475445 6.37357e-23)
(0.0837328 -0.0454136 4.22835e-22)
(0.0843684 -0.0428926 5.69562e-20)
(0.0848419 -0.0400122 -1.77765e-20)
(0.0851265 -0.0368081 -1.94948e-21)
(0.0851978 -0.0333241 1.34294e-20)
(0.0850378 -0.0296123 -2.5542e-20)
(0.0846365 -0.0257313 1.202e-20)
(0.0839919 -0.021743 4.62793e-21)
(0.0831099 -0.01771 -5.63064e-21)
(0.0820039 -0.0136929 2.06208e-21)
(0.0806927 -0.00974757 -1.12192e-19)
(0.0791999 -0.00592368 1.11553e-19)
(0.077551 -0.00226332 -3.00441e-22)
(0.0757727 0.00119925 1.79915e-21)
(0.0738912 0.00443745 -1.25786e-21)
(0.0719317 0.0074319 -5.29795e-21)
(0.0699175 0.0101697 1.16321e-20)
(0.0678702 0.0126434 -6.18636e-21)