/*--------------------------------*- C++ -*----------------------------------*\
  =========                 |
  \\      /  F ield         | OpenFOAM: The Open Source CFD Toolbox
   \\    /   O peration     | Website:  https://openfoam.org
    \\  /    A nd           | Version:  12
     \\/     M anipulation  |
\*---------------------------------------------------------------------------*/
FoamFile
{
    format      ascii;
    class       volVectorField;
    location    "240";
    object      UMean;
}
// * * * * * * * * * * * * * * * * * * * * * * * * * * * * * * * * * * * * * //

dimensions      [0 1 -1 0 0 0 0];

internalField   nonuniform List<vector> 
6750
(
(0.200073 -0.00307373 0)
(0.200373 -0.00932752 0)
(0.20067 -0.0150361 0)
(0.200927 -0.0202882 0)
(0.200831 -0.0251883 0)
(0.200037 -0.00346546 0)
(0.200287 -0.00995236 0)
(0.2005 -0.0156026 0)
(0.200592 -0.020584 0)
(0.200494 -0.0249947 0)
(0.200026 -0.00363192 0)
(0.200132 -0.0101914 0)
(0.200157 -0.0157227 0)
(0.200049 -0.0204334 0)
(0.199824 -0.0244348 0)
(0.20001 -0.0036673 0)
(0.199962 -0.0101509 0)
(0.199793 -0.0155003 0)
(0.199503 -0.0199594 0)
(0.199146 -0.0236754 0)
(0.199995 -0.00360121 0)
(0.199805 -0.0098799 0)
(0.199452 -0.0149908 0)
(0.198984 -0.0192035 0)
(0.198478 -0.0226889 0)
(0.199983 -0.00345093 0)
(0.199663 -0.00941262 0)
(0.199132 -0.0142274 0)
(0.198481 -0.018175 0)
(0.19781 -0.0214345 0)
(0.199972 -0.00323081 0)
(0.199528 -0.00877643 0)
(0.198823 -0.0132354 0)
(0.197986 -0.016884 0)
(0.197135 -0.0198981 0)
(0.199963 -0.00295192 0)
(0.199401 -0.0079943 0)
(0.198526 -0.0120388 0)
(0.197502 -0.0153477 0)
(0.196465 -0.0180858 0)
(0.199954 -0.00262396 0)
(0.199282 -0.00708898 0)
(0.198246 -0.0106659 0)
(0.197042 -0.0135944 0)
(0.195822 -0.0160233 0)
(0.199947 -0.00225682 0)
(0.199175 -0.00608536 0)
(0.197992 -0.00915082 0)
(0.196623 -0.0116635 0)
(0.195232 -0.0137523 0)
(0.199941 -0.001861 0)
(0.199083 -0.00501048 0)
(0.197773 -0.00753233 0)
(0.196261 -0.00960189 0)
(0.194719 -0.0113259 0)
(0.199936 -0.0014473 0)
(0.199009 -0.00389225 0)
(0.197596 -0.00585119 0)
(0.195968 -0.00746029 0)
(0.194302 -0.00880287 0)
(0.199932 -0.00102617 0)
(0.198955 -0.00275779 0)
(0.197465 -0.00414737 0)
(0.195751 -0.00528888 0)
(0.193993 -0.00624223 0)
(0.199928 -0.000606956 0)
(0.198923 -0.00163201 0)
(0.197382 -0.00245711 0)
(0.195612 -0.00313346 0)
(0.193794 -0.00369852 0)
(0.199919 -0.000201411 0)
(0.198917 -0.000534648 0)
(0.197345 -0.000809246 0)
(0.195547 -0.00103226 0)
(0.1937 -0.00121839 0)
(0.199919 0.000201389 0)
(0.198917 0.000534732 0)
(0.197345 0.000809473 0)
(0.195547 0.00103264 0)
(0.1937 0.00121889 0)
(0.199928 0.000606932 0)
(0.198923 0.00163209 0)
(0.197382 0.00245734 0)
(0.195612 0.00313383 0)
(0.193794 0.00369902 0)
(0.199932 0.00102615 0)
(0.198955 0.00275787 0)
(0.197465 0.0041476 0)
(0.195751 0.00528925 0)
(0.193993 0.00624273 0)
(0.199936 0.00144728 0)
(0.199009 0.00389234 0)
(0.197596 0.00585142 0)
(0.195968 0.00746066 0)
(0.194302 0.00880337 0)
(0.199941 0.00186098 0)
(0.199083 0.00501057 0)
(0.197773 0.00753256 0)
(0.196261 0.00960227 0)
(0.194719 0.0113264 0)
(0.199947 0.0022568 0)
(0.199175 0.00608545 0)
(0.197992 0.00915105 0)
(0.196623 0.0116639 0)
(0.195232 0.0137528 0)
(0.199954 0.00262394 0)
(0.199282 0.00708907 0)
(0.198246 0.0106661 0)
(0.197042 0.0135948 0)
(0.195822 0.0160238 0)
(0.199963 0.00295191 0)
(0.199401 0.0079944 0)
(0.198526 0.012039 0)
(0.197502 0.0153481 0)
(0.196465 0.0180864 0)
(0.199972 0.00323081 0)
(0.199528 0.00877654 0)
(0.198823 0.0132356 0)
(0.197986 0.0168844 0)
(0.197135 0.0198986 0)
(0.199983 0.00345094 0)
(0.199663 0.00941273 0)
(0.199132 0.0142276 0)
(0.198481 0.0181754 0)
(0.19781 0.021435 0)
(0.199995 0.00360123 0)
(0.199805 0.00988002 0)
(0.199452 0.014991 0)
(0.198984 0.0192038 0)
(0.198478 0.0226894 0)
(0.20001 0.00366733 0)
(0.199962 0.010151 0)
(0.199793 0.0155005 0)
(0.199503 0.0199598 0)
(0.199146 0.0236758 0)
(0.200026 0.00363195 0)
(0.200132 0.0101915 0)
(0.200157 0.015723 0)
(0.200049 0.0204337 0)
(0.199824 0.0244352 0)
(0.200037 0.0034655 0)
(0.200287 0.00995249 0)
(0.2005 0.0156028 0)
(0.200592 0.0205843 0)
(0.200494 0.024995 0)
(0.200073 0.00307376 0)
(0.200373 0.00932764 0)
(0.20067 0.0150362 0)
(0.200927 0.0202884 0)
(0.200831 0.0251886 0)
(0.198934 -0.0360909 0)
(0.197415 -0.0411876 0)
(0.19615 -0.0458169 0)
(0.195314 -0.0499371 6.70558e-23)
(0.194767 -0.0534493 0)
(0.194451 -0.0563006 0)
(0.194357 -0.0584315 -4.94018e-21)
(0.194469 -0.0597537 4.99575e-21)
(0.194766 -0.0601604 4.47293e-23)
(0.195183 -0.0595938 2.81298e-21)
(0.19569 -0.0579171 4.89086e-23)
(0.196209 -0.0550164 3.04378e-23)
(0.196663 -0.050943 -1.49329e-21)
(0.196969 -0.0457644 -1.50291e-21)
(0.197054 -0.039621 -3.50887e-21)
(0.196863 -0.032719 3.51015e-21)
(0.196369 -0.025313 -1.37186e-21)
(0.195573 -0.0176799 -1.20967e-21)
(0.194505 -0.0100957 1.75257e-22)
(0.193216 -0.00280961 2.08801e-22)
(0.191761 0.00397653 2.19368e-21)
(0.19022 0.0101478 -3.00959e-23)
(0.188674 0.015589 2.97039e-21)
(0.187184 0.0202518 -2.94413e-21)
(0.185802 0.024133 0)
(0.184569 0.0272593 0)
(0.183514 0.0296768 -2.17642e-23)
(0.182663 0.031443 0)
(0.182042 0.0326235 0)
(0.18163 0.0332554 0)
(0.19815 -0.0392164 0)
(0.196787 -0.0442164 0)
(0.195789 -0.0484385 0)
(0.195127 -0.0520846 -6.34222e-23)
(0.19469 -0.055145 0)
(0.194461 -0.0575847 0)
(0.194439 -0.0593384 5.7306e-21)
(0.194612 -0.0603155 -5.88824e-21)
(0.19495 -0.0604177 -4.21203e-23)
(0.195394 -0.0595989 0)
(0.19591 -0.057703 0)
(0.196417 -0.0546718 -2.73768e-21)
(0.196845 -0.0505521 2.7463e-21)
(0.197118 -0.0454136 0)
(0.197168 -0.0393902 -9.03948e-21)
(0.196948 -0.0326725 9.04086e-21)
(0.196435 -0.0254916 0)
(0.195631 -0.0180991 2.37721e-21)
(0.194566 -0.0107428 -2.39084e-21)
(0.193287 -0.0036487 0)
(0.191857 0.00299908 0)
(0.190338 0.00908025 2.82656e-23)
(0.188801 0.0144928 -3.08042e-21)
(0.18731 0.0191861 3.10055e-21)
(0.185914 0.0231482 0)
(0.184652 0.0263969 0)
(0.183552 0.0289691 2.05346e-23)
(0.182634 0.0309133 0)
(0.18193 0.0322907 0)
(0.181442 0.033165 0)
(0.197407 -0.0416298 0)
(0.196339 -0.0461513 0)
(0.195509 -0.0499857 0)
(0.194934 -0.0533259 6.46382e-21)
(0.194566 -0.0561299 -6.53497e-21)
(0.194407 -0.0583403 6.83099e-21)
(0.194453 -0.0598802 -6.89519e-21)
(0.194688 -0.0606573 1.00669e-22)
(0.195076 -0.0605819 0)
(0.195563 -0.0596073 0)
(0.196106 -0.0575713 -1.00282e-22)
(0.196623 -0.0544528 0)
(0.197046 -0.0502912 0)
(0.197297 -0.0451585 -2.12366e-23)
(0.197312 -0.0391869 -1.41921e-20)
(0.197046 -0.03256 1.4193e-20)
(0.19648 -0.0254983 1.71125e-23)
(0.195621 -0.0182389 0)
(0.194502 -0.0110155 0)
(0.193171 -0.00403885 5.22191e-23)
(0.191691 0.00251733 0)
(0.19013 0.00852145 0)
(0.188552 0.013892 -4.85762e-23)
(0.187021 0.0185781 -2.15029e-21)
(0.185583 0.022565 2.13029e-21)
(0.184276 0.0258659 -1.36282e-21)
(0.183126 0.0285126 1.33843e-21)
(0.18215 0.0305479 0)
(0.181379 0.0320331 0)
(0.180876 0.0330879 0)
(0.196746 -0.0437937 0)
(0.195884 -0.0479223 -1.50516e-20)
(0.195152 -0.0514481 7.52931e-21)
(0.194644 -0.0545219 1.59066e-20)
(0.194346 -0.0570833 -1.61036e-20)
(0.194259 -0.0590665 8.00515e-21)
(0.194372 -0.0603921 0)
(0.194673 -0.0609688 2.50253e-22)
(0.195113 -0.0607213 0)
(0.195653 -0.0595845 0)
(0.196232 -0.0574129 3.56992e-21)
(0.196769 -0.0542096 -3.37035e-21)
(0.197194 -0.0500071 0)
(0.197427 -0.0448807 2.22957e-23)
(0.197404 -0.0389605 -1.87189e-20)
(0.197081 -0.032424 1.87226e-20)
(0.196443 -0.0254812 -1.79679e-23)
(0.195501 -0.0183566 0)
(0.194292 -0.01127 -1.62724e-21)
(0.192869 -0.00441939 1.524e-21)
(0.1913 0.00203139 3.47192e-23)
(0.189652 0.00795916 0)
(0.187995 0.0132822 -4.68946e-23)
(0.186388 0.0179535 0)
(0.184881 0.0219573 1.0787e-21)
(0.18351 0.025304 -1.77155e-21)
(0.182298 0.0280211 1.10801e-21)
(0.181258 0.0301449 -1.54804e-22)
(0.180423 0.0317335 -2.38641e-22)
(0.179924 0.0329669 0)
(0.196062 -0.0458513 0)
(0.195325 -0.0496421 1.83239e-20)
(0.194673 -0.0528831 -1.79862e-20)
(0.194236 -0.0556969 0)
(0.194011 -0.0580178 0)
(0.193994 -0.0597757 2.97869e-22)
(0.194177 -0.0608889 0)
(0.194543 -0.0612673 -2.6208e-22)
(0.19504 -0.0608501 4.05158e-21)
(0.195634 -0.0595461 -4.13111e-21)
(0.196248 -0.057242 -3.75229e-21)
(0.196807 -0.0539497 3.65343e-21)
(0.197234 -0.0497006 1.00084e-22)
(0.197445 -0.0445728 -4.45574e-23)
(0.197378 -0.0386953 -2.26124e-20)
(0.196991 -0.0322402 2.26176e-20)
(0.196269 -0.0254086 2.83001e-23)
(0.195229 -0.0184135 -4.6798e-23)
(0.19391 -0.0114621 1.28653e-21)
(0.192374 -0.00474037 -1.23731e-21)
(0.190689 0.00159795 -8.83655e-22)
(0.18893 0.00743748 8.41231e-22)
(0.187167 0.0127002 4.91452e-23)
(0.185461 0.0173417 0)
(0.183863 0.0213469 -3.33595e-24)
(0.182408 0.0247245 0)
(0.18112 0.0274984 0)
(0.180009 0.0296997 7.70661e-22)
(0.179103 0.031381 -7.15213e-22)
(0.178605 0.0327827 0)
(0.195285 -0.0478085 2.03279e-20)
(0.194629 -0.0512808 -3.18681e-20)
(0.194053 -0.0542523 1.044e-20)
(0.19369 -0.0568194 0)
(0.193537 -0.0589115 1.03672e-20)
(0.19359 -0.0604539 -1.01305e-20)
(0.193841 -0.0613634 9.62016e-21)
(0.194273 -0.0615522 -9.93235e-21)
(0.194827 -0.0609679 0)
(0.19547 -0.059497 -2.80558e-22)
(0.196118 -0.0570626 3.91125e-21)
(0.196695 -0.0536769 -2.15954e-21)
(0.197117 -0.0493736 -4.13006e-22)
(0.197302 -0.0442334 -1.53162e-21)
(0.197186 -0.0383849 -2.58283e-20)
(0.196727 -0.0319962 2.58263e-20)
(0.195915 -0.0252612 -8.18841e-22)
(0.194768 -0.0183834 2.54697e-22)
(0.193332 -0.011559 -3.17619e-22)
(0.191671 -0.00496302 9.29877e-22)
(0.189859 0.00126057 1.97813e-23)
(0.187975 0.00700362 0)
(0.18609 0.0121934 -1.3052e-22)
(0.184269 0.0167891 1.14474e-22)
(0.182563 0.0207771 4.60827e-22)
(0.18101 0.0241653 -4.07964e-22)
(0.179633 0.0269759 -7.01938e-23)
(0.178439 0.0292354 -9.92877e-22)
(0.177454 0.030991 2.40074e-21)
(0.176942 0.0325391 -1.51047e-21)
(0.194375 -0.0496546 -1.12863e-20)
(0.193775 -0.0528259 1.27454e-20)
(0.193271 -0.0555477 1.25997e-20)
(0.19298 -0.0578851 -1.2771e-20)
(0.192898 -0.0597618 1.16593e-20)
(0.19302 -0.0610993 -1.25079e-20)
(0.19334 -0.0618136 -3.85621e-22)
(0.193833 -0.0618214 0)
(0.194443 -0.06107 4.9064e-21)
(0.19513 -0.0594339 -1.17908e-22)
(0.195806 -0.0568697 -1.67192e-22)
(0.196395 -0.0533863 -4.32954e-21)
(0.196806 -0.0490208 -1.50988e-21)
(0.196958 -0.0438568 2.30879e-21)
(0.196786 -0.0380234 -2.89329e-20)
(0.196252 -0.031686 2.78008e-20)
(0.195345 -0.0250327 1.10138e-21)
(0.194089 -0.0182589 -7.2721e-22)
(0.192533 -0.0115515 -5.56432e-22)
(0.190744 -0.00507574 2.95055e-22)
(0.1888 0.00103332 2.37262e-22)
(0.186784 0.00667485 -1.16621e-23)
(0.184771 0.0117818 0)
(0.182826 0.0163175 -7.32762e-23)
(0.181003 0.0202703 1.24743e-21)
(0.179341 0.0236492 -1.27962e-21)
(0.177864 0.0264749 1.59848e-21)
(0.176579 0.0287714 -1.49298e-21)
(0.175506 0.030581 -1.15644e-21)
(0.174962 0.032248 1.32758e-21)
(0.193299 -0.0513906 0)
(0.19274 -0.0542822 1.24532e-20)
(0.192305 -0.0567756 -1.51424e-20)
(0.192084 -0.0588992 1.40125e-20)
(0.19207 -0.060572 -1.33919e-20)
(0.192261 -0.0617132 1.18293e-20)
(0.192648 -0.0622388 -1.19971e-20)
(0.193195 -0.0620728 -7.58821e-22)
(0.193859 -0.0611494 -3.566e-22)
(0.194583 -0.0593509 -3.30453e-22)
(0.195281 -0.0566557 -2.92402e-22)
(0.195872 -0.0530693 1.30594e-22)
(0.196265 -0.0486334 -1.77049e-21)
(0.196377 -0.0434353 9.82865e-22)
(0.196145 -0.0376047 -2.91826e-20)
(0.195531 -0.0313049 3.02487e-20)
(0.194529 -0.0247197 1.28375e-22)
(0.193164 -0.0180377 -4.6834e-22)
(0.191488 -0.0114376 3.96718e-24)
(0.189573 -0.00507598 -6.05923e-24)
(0.187499 0.000920296 -3.78819e-23)
(0.185352 0.00645751 -5.45378e-23)
(0.183209 0.0114744 -1.3482e-22)
(0.181137 0.0159383 2.18067e-21)
(0.179193 0.0198408 -2.23155e-21)
(0.177417 0.023192 2.42939e-21)
(0.175833 0.0260127 -2.26684e-21)
(0.174448 0.0283253 2.22522e-21)
(0.173282 0.0301686 -2.64378e-21)
(0.172688 0.031925 0)
(0.192027 -0.053023 0)
(0.191498 -0.055657 9.62283e-22)
(0.19113 -0.0579408 -1.29376e-20)
(0.190976 -0.0598642 3.84196e-22)
(0.19103 -0.0613426 1.48795e-20)
(0.191287 -0.0622943 8.69512e-22)
(0.191737 -0.0626351 8.72707e-22)
(0.192334 -0.0622994 -5.42248e-21)
(0.193046 -0.0611994 6.72279e-21)
(0.193798 -0.0592414 -9.40346e-24)
(0.19451 -0.0564112 -2.35733e-21)
(0.195096 -0.0527161 2.37149e-21)
(0.195463 -0.0482024 -7.27493e-22)
(0.195528 -0.0429608 8.4781e-22)
(0.195231 -0.0371221 -3.05851e-20)
(0.194535 -0.0308484 3.05791e-20)
(0.193438 -0.0243197 1.81317e-22)
(0.191966 -0.0177186 -2.00169e-22)
(0.190175 -0.0112168 -1.54101e-22)
(0.188138 -0.00496307 2.14083e-22)
(0.18594 0.000923201 -3.09909e-23)
(0.183666 0.00635503 -1.31158e-21)
(0.181396 0.0112767 1.40784e-21)
(0.1792 0.01566 2.25936e-22)
(0.177135 0.0194996 1.75128e-22)
(0.175243 0.0228073 -3.49709e-21)
(0.173549 0.0256048 -1.32091e-22)
(0.172061 0.027914 3.9725e-21)
(0.170796 0.0297716 0)
(0.170137 0.0315881 0)
(0.190527 -0.054559 0)
(0.190025 -0.0569557 -1.74205e-20)
(0.189721 -0.0590457 3.85764e-22)
(0.189633 -0.0607801 4.86428e-22)
(0.189752 -0.0620716 3.11952e-20)
(0.190072 -0.0628387 -1.60355e-20)
(0.19058 -0.0629988 -9.12059e-22)
(0.191224 -0.0624918 0)
(0.191974 -0.0612125 5.86117e-21)
(0.192747 -0.0590945 -5.98112e-21)
(0.193465 -0.0561255 2.48812e-21)
(0.194036 -0.0523162 -3.93222e-22)
(0.194368 -0.047718 -2.12081e-21)
(0.194382 -0.0424248 4.60706e-23)
(0.194015 -0.0365692 -3.03217e-20)
(0.193236 -0.0303121 3.03283e-20)
(0.192044 -0.0238301 -8.2249e-24)
(0.19047 -0.017301 1.23988e-22)
(0.188569 -0.0108896 2.71265e-22)
(0.186418 -0.00473787 -5.2191e-22)
(0.184103 0.00104167 1.67834e-21)
(0.18171 0.00636833 -1.62345e-21)
(0.179321 0.0111917 0)
(0.177007 0.0154879 -2.36175e-22)
(0.174825 0.0192546 4.60866e-21)
(0.172819 0.022506 -9.55781e-21)
(0.171016 0.0252646 -1.13581e-22)
(0.169422 0.0275527 -2.11241e-22)
(0.168057 0.0294067 4.52155e-21)
(0.167321 0.0312559 0)
(0.18877 -0.0560053 -2.37534e-21)
(0.188293 -0.0581823 0)
(0.188051 -0.0600912 -1.11175e-21)
(0.188027 -0.0616449 1.65821e-20)
(0.188209 -0.0627549 -1.80856e-20)
(0.188589 -0.0633403 1.66584e-20)
(0.189147 -0.0633229 -1.67633e-20)
(0.189836 -0.0626383 -7.31942e-21)
(0.190616 -0.061178 1.51045e-20)
(0.191402 -0.0588985 -3.78483e-22)
(0.192116 -0.0557866 -5.72934e-21)
(0.192664 -0.0518582 2.18384e-21)
(0.192955 -0.0471697 -1.32939e-21)
(0.19291 -0.0418189 -1.23476e-21)
(0.192471 -0.0359394 -2.86698e-20)
(0.191608 -0.0296917 2.9068e-20)
(0.190324 -0.0232492 -8.64982e-23)
(0.188651 -0.0167847 3.56525e-22)
(0.186648 -0.0104574 -3.5722e-22)
(0.184391 -0.00440264 2.03726e-21)
(0.181968 0.00127345 5.66372e-22)
(0.179466 0.00649595 -4.46658e-21)
(0.176967 0.0112194 2.52056e-21)
(0.174543 0.015424 5.81707e-21)
(0.172251 0.0191104 -5.73648e-21)
(0.170137 0.0222952 5.95032e-21)
(0.168227 0.0250021 -6.33616e-21)
(0.16653 0.0272541 4.08629e-22)
(0.165066 0.0290885 0)
(0.164244 0.0309456 -5.53906e-22)
(0.186725 -0.0573672 2.47041e-21)
(0.186273 -0.0593387 -2.11144e-20)
(0.186093 -0.0610756 2.02167e-20)
(0.186132 -0.0624545 1.20655e-21)
(0.186374 -0.0633859 1.18e-21)
(0.186812 -0.0637899 0)
(0.187411 -0.0635965 -1.11552e-21)
(0.18814 -0.0627264 -8.95547e-21)
(0.18894 -0.0610847 1.47895e-20)
(0.189733 -0.0586403 -7.72338e-21)
(0.190434 -0.0553816 -3.72546e-22)
(0.19095 -0.0513299 2.25078e-21)
(0.191193 -0.046547 -2.26287e-21)
(0.191085 -0.041134 -4.45897e-23)
(0.190571 -0.0352262 -2.64233e-20)
(0.189625 -0.028983 2.64174e-20)
(0.188252 -0.0225749 -3.65757e-24)
(0.186486 -0.0161702 6.2063e-22)
(0.184387 -0.00992234 -6.17185e-22)
(0.182034 -0.00396059 -1.22397e-22)
(0.179514 0.00161489 2.79071e-21)
(0.176914 0.00673454 -6.37257e-21)
(0.174316 0.0113575 2.7775e-21)
(0.171791 0.0154676 -4.89985e-22)
(0.169399 0.0190686 0)
(0.167185 0.0221791 4.27739e-22)
(0.165174 0.024824 4.27812e-22)
(0.163377 0.0270276 -7.13172e-21)
(0.161817 0.0288289 6.60047e-21)
(0.160906 0.0306727 5.75999e-22)
(0.184359 -0.0586476 0)
(0.183933 -0.060424 -6.73306e-23)
(0.183814 -0.0619946 2.15011e-20)
(0.183915 -0.0632018 -2.19188e-20)
(0.184215 -0.0639555 -2.04375e-20)
(0.184704 -0.0641775 3.15425e-20)
(0.185344 -0.0638048 -8.64938e-21)
(0.186105 -0.0627425 -3.26947e-23)
(0.186918 -0.0609183 -1.03524e-21)
(0.187708 -0.0583054 0)
(0.188388 -0.0548962 -2.8659e-21)
(0.188866 -0.0507183 5.19796e-21)
(0.189054 -0.0458384 -2.32365e-21)
(0.188879 -0.040361 4.66585e-23)
(0.188289 -0.0344227 -2.2544e-20)
(0.18726 -0.0281817 2.25487e-20)
(0.185801 -0.0218057 3.8287e-24)
(0.183948 -0.0154582 9.12384e-22)
(0.181763 -0.00928697 -2.20171e-21)
(0.179324 -0.00341565 1.28496e-21)
(0.176718 0.0020613 0)
(0.174031 0.0070793 -5.32607e-22)
(0.171346 0.0116017 -8.55177e-23)
(0.168733 0.0156158 5.01677e-21)
(0.166251 0.019128 -1.29723e-20)
(0.163944 0.0221587 8.99362e-21)
(0.161841 0.024734 9.08552e-21)
(0.159951 0.0268795 -9.43255e-21)
(0.1583 0.0286365 -7.82516e-23)
(0.157298 0.0304496 0)
(0.181636 -0.0598464 0)
(0.18124 -0.061434 -2.2075e-20)
(0.181182 -0.0628407 2.40344e-20)
(0.181343 -0.0638768 2.13521e-20)
(0.1817 -0.0644515 -2.32694e-20)
(0.182235 -0.0644905 -1.1793e-20)
(0.182913 -0.0639305 8.20291e-22)
(0.183698 -0.0626711 1.12296e-20)
(0.184517 -0.060662 2.18408e-21)
(0.185297 -0.0578772 0)
(0.185948 -0.0543152 0)
(0.18638 -0.0500096 -2.02787e-21)
(0.186508 -0.0450321 2.50126e-21)
(0.186263 -0.0394904 0)
(0.185595 -0.0335219 -1.71826e-20)
(0.184486 -0.0272836 1.71795e-20)
(0.182945 -0.0209398 0)
(0.181013 -0.0146492 -1.16692e-21)
(0.17875 -0.00855412 1.43413e-21)
(0.176235 -0.00277228 0)
(0.173555 0.00260711 0)
(0.170794 0.00752421 1.20196e-21)
(0.168034 0.0119462 -4.67718e-21)
(0.165344 0.0158635 -2.41622e-22)
(0.162783 0.0192847 4.71371e-21)
(0.160396 0.0222319 1.09919e-20)
(0.158209 0.0247323 -1.15121e-20)
(0.156234 0.0268125 -1.04698e-20)
(0.154497 0.0285165 1.08354e-20)
(0.153408 0.030285 0)
(0.178518 -0.0609598 0)
(0.178156 -0.062359 0)
(0.17816 -0.0636027 0)
(0.178381 -0.0644661 -2.31492e-20)
(0.178793 -0.064858 1.15984e-20)
(0.179369 -0.0647121 1.34574e-20)
(0.180082 -0.0639535 1.40449e-21)
(0.180883 -0.0624946 9.72486e-21)
(0.181703 -0.0602973 -1.15358e-21)
(0.182464 -0.057338 -8.79195e-21)
(0.183078 -0.053622 -4.31876e-22)
(0.183459 -0.049189 -6.9182e-22)
(0.183523 -0.0441155 -1.09612e-21)
(0.183204 -0.0385122 8.0497e-22)
(0.182459 -0.0325167 -1.0164e-20)
(0.181272 -0.0262844 1.01704e-20)
(0.179655 -0.0199757 -5.55033e-22)
(0.17765 -0.0137444 3.55801e-22)
(0.175319 -0.00772698 -4.65315e-22)
(0.17274 -0.00203553 -3.08605e-22)
(0.169998 0.00324599 5.54116e-21)
(0.167176 0.00806218 6.18542e-22)
(0.164354 0.0123838 -5.9091e-21)
(0.1616 0.0162038 8.49821e-22)
(0.158973 0.0195329 -5.67139e-21)
(0.156515 0.0223944 -7.48569e-21)
(0.154255 0.0248163 1.3531e-20)
(0.152202 0.0268261 0)
(0.150389 0.0284706 0)
(0.149215 0.0301842 0)
(0.174962 -0.0619771 -2.7844e-20)
(0.174638 -0.063187 2.93628e-20)
(0.174706 -0.0642657 0)
(0.174988 -0.0649525 -1.33195e-20)
(0.175453 -0.0651568 1.50878e-20)
(0.176068 -0.064819 1.20887e-20)
(0.176811 -0.0638526 -1.53487e-20)
(0.177622 -0.062192 0)
(0.178435 -0.059803 -1.22265e-21)
(0.179171 -0.0566678 0)
(0.179743 -0.0527982 -1.09567e-25)
(0.180065 -0.0482404 6.37957e-24)
(0.180061 -0.0430754 2.54582e-22)
(0.179668 -0.0374158 7.62537e-23)
(0.178846 -0.0313996 -1.33384e-21)
(0.177584 -0.0251796 1.31546e-21)
(0.175898 -0.0189119 6.77763e-23)
(0.173829 -0.0127449 2.16711e-22)
(0.17144 -0.00680922 -4.59253e-23)
(0.168809 -0.00121107 -4.95399e-23)
(0.166017 0.0039707 0)
(0.163147 0.00868489 -8.04288e-22)
(0.160277 0.0129055 0)
(0.157473 0.0166279 5.74162e-21)
(0.154791 0.0198642 -7.36856e-21)
(0.152275 0.0226389 -6.75779e-21)
(0.149951 0.0249802 7.49451e-21)
(0.147831 0.0269165 0)
(0.145948 0.0284971 -1.17659e-20)
(0.144696 0.0301484 1.27785e-20)
(0.170919 -0.0628828 0)
(0.17064 -0.0639007 8.47409e-23)
(0.170774 -0.0648098 3.13833e-20)
(0.17112 -0.0653136 -2.99252e-20)
(0.171633 -0.065325 1.7912e-21)
(0.172289 -0.0647838 -3.37568e-21)
(0.173055 -0.0636034 1.56798e-21)
(0.173872 -0.061738 0)
(0.174671 -0.0591552 0)
(0.175375 -0.0558442 0)
(0.175898 -0.051824 4.68448e-22)
(0.176158 -0.0471466 -2.08311e-21)
(0.176083 -0.0418972 3.11676e-21)
(0.175614 -0.0361903 -9.85612e-22)
(0.174718 -0.0301628 9.72469e-21)
(0.173385 -0.0239647 -9.84106e-21)
(0.171636 -0.0177471 1.11986e-21)
(0.169512 -0.0116525 -3.4947e-21)
(0.167077 -0.00580516 2.78021e-21)
(0.164405 -0.000305475 3.86203e-22)
(0.161578 0.00477285 4.94866e-22)
(0.158674 0.00938266 0)
(0.155769 0.0135009 0)
(0.152928 0.017125 1.03466e-21)
(0.150205 0.0202682 -2.22588e-21)
(0.147642 0.0229555 1.17645e-21)
(0.145266 0.0252152 1.76018e-20)
(0.143088 0.0270763 -1.60488e-20)
(0.141145 0.0285903 1.20994e-22)
(0.139821 0.0301746 0)
(0.166337 -0.0636533 -3.20917e-20)
(0.166107 -0.0644784 2.977e-20)
(0.166311 -0.0652093 1.38638e-20)
(0.166722 -0.0655208 -1.61074e-20)
(0.167285 -0.0653328 -1.64396e-20)
(0.167979 -0.0645743 1.68268e-20)
(0.168764 -0.0631774 1.2909e-20)
(0.169581 -0.0611039 -1.15742e-20)
(0.170361 -0.0583265 5.81217e-21)
(0.171026 -0.0548421 -5.18808e-21)
(0.171495 -0.0506769 3.88711e-21)
(0.171689 -0.0458885 -2.21199e-21)
(0.17154 -0.0405655 -1.1157e-21)
(0.170996 -0.0348236 2.69725e-23)
(0.170028 -0.0287982 2.27184e-20)
(0.168631 -0.0226352 -2.27444e-20)
(0.166826 -0.0164804 6.37119e-23)
(0.164659 -0.0104694 1.67427e-21)
(0.162189 -0.00472006 2.14405e-21)
(0.15949 0.00067346 -3.59183e-21)
(0.156641 0.00564255 4.04596e-21)
(0.153718 0.010144 -3.8699e-21)
(0.150793 0.0141574 1.14196e-20)
(0.147929 0.0176818 -9.92427e-21)
(0.145178 0.0207314 -9.16503e-21)
(0.142581 0.0233312 8.94164e-21)
(0.140163 0.0255092 1.01838e-20)
(0.137938 0.0272946 -1.11146e-20)
(0.135943 0.0287406 -1.84886e-20)
(0.134555 0.0302553 1.75368e-20)
(0.161152 -0.0642601 -2.17563e-21)
(0.160977 -0.064889 -3.40986e-20)
(0.161258 -0.06543 3.75338e-20)
(0.161734 -0.0655399 0)
(0.162349 -0.0651405 -2.0751e-21)
(0.16308 -0.0641556 0)
(0.163881 -0.062539 -1.84467e-21)
(0.164693 -0.0602555 1.23993e-20)
(0.165447 -0.0572852 -1.32989e-20)
(0.166068 -0.0536329 6.26318e-22)
(0.166477 -0.0493317 -1.00432e-21)
(0.166601 -0.0444446 -3.67259e-22)
(0.166377 -0.0390631 -1.22907e-22)
(0.165759 -0.033303 -2.79969e-23)
(0.164723 -0.0272973 3.83852e-20)
(0.163268 -0.021187 -3.83984e-20)
(0.161418 -0.0151114 -6.61307e-23)
(0.159217 -0.0091991 -1.85108e-22)
(0.156726 -0.00356061 5.25547e-22)
(0.154016 0.00171614 0)
(0.15116 0.00656776 6.7209e-22)
(0.148234 0.0109548 1.06033e-20)
(0.145304 0.0148594 -1.08925e-20)
(0.142432 0.0182819 -1.55047e-21)
(0.139667 0.0212368 0)
(0.137048 0.023749 -1.56374e-21)
(0.1346 0.0258456 0)
(0.132337 0.0275556 -2.10241e-20)
(0.1303 0.0289335 2.19404e-20)
(0.128854 0.0303779 -1.26316e-21)
(0.155291 -0.0646651 -3.47584e-20)
(0.15518 -0.0650886 3.64858e-20)
(0.155543 -0.0654268 1.14545e-22)
(0.156087 -0.0653268 1.97923e-20)
(0.156758 -0.0647 -3.27534e-20)
(0.157522 -0.0634846 1.94064e-20)
(0.158335 -0.0616454 1.89886e-21)
(0.159137 -0.0591523 5.10258e-23)
(0.15986 -0.0559939 0)
(0.160431 -0.052183 -6.46802e-22)
(0.160775 -0.0477594 -2.51562e-21)
(0.160826 -0.0427908 3.97157e-21)
(0.160526 -0.0373709 1.06771e-22)
(0.159837 -0.0316146 1.76751e-23)
(0.158738 -0.0256512 5.68147e-20)
(0.157233 -0.019616 -5.73896e-20)
(0.155348 -0.0136409 6.69341e-22)
(0.153128 -0.00784644 2.54056e-22)
(0.150631 -0.00233562 -5.53585e-21)
(0.147924 0.00281036 4.93507e-21)
(0.14508 0.00753337 -6.94064e-22)
(0.142166 0.0117977 0)
(0.139249 0.0155877 -1.55613e-21)
(0.136384 0.0189046 1.596e-21)
(0.133619 0.0217631 -1.19222e-20)
(0.130992 0.0241871 2.86253e-20)
(0.128527 0.0262027 -1.15114e-20)
(0.126237 0.0278382 1.83289e-22)
(0.124166 0.0291489 -2.32317e-20)
(0.12267 0.0305232 2.4796e-20)
(0.148665 -0.0648149 0)
(0.148631 -0.0650208 0)
(0.149079 -0.0651442 -2.17241e-20)
(0.149698 -0.0648212 1.76157e-20)
(0.150426 -0.0639561 0)
(0.151222 -0.0625073 -2.17105e-21)
(0.152043 -0.0604444 -2.09211e-21)
(0.152829 -0.0577457 -1.82667e-21)
(0.153515 -0.0544082 0)
(0.15403 -0.050453 0)
(0.154306 -0.0459261 -5.32153e-22)
(0.154281 -0.0408993 1.34445e-21)
(0.153906 -0.0354672 -1.38021e-21)
(0.153148 -0.0297428 -1.45585e-23)
(0.151993 -0.0238507 7.83394e-20)
(0.150448 -0.0179189 -7.8394e-20)
(0.148542 -0.0120709 -9.91775e-23)
(0.146317 -0.00641876 1.91241e-21)
(0.14383 -0.00105699 -2.45053e-21)
(0.141146 0.00394012 0)
(0.138331 0.00851983 0)
(0.135449 0.0126501 0)
(0.132562 0.0163172 0)
(0.129721 0.0195231 -2.03163e-21)
(0.126973 0.022282 -1.83925e-21)
(0.124353 0.0246166 0)
(0.121883 0.0265513 -1.71431e-20)
(0.119577 0.0281135 1.31256e-20)
(0.117481 0.0293583 0)
(0.115942 0.0306638 0)
(0.141167 -0.0646371 -2.68906e-21)
(0.141223 -0.0646121 0)
(0.141767 -0.0645099 0)
(0.142467 -0.0639464 0)
(0.143251 -0.0628385 0)
(0.144077 -0.0611543 0)
(0.144901 -0.0588706 2.13671e-21)
(0.145666 -0.055975 9.96771e-22)
(0.146308 -0.0524736 -6.16375e-21)
(0.146761 -0.0483951 2.03813e-21)
(0.146963 -0.0437915 9.20097e-21)
(0.146861 -0.0387374 -4.9758e-21)
(0.146412 -0.0333274 7.50332e-22)
(0.14559 -0.0276709 3.89059e-22)
(0.144388 -0.0218864 1.03257e-19)
(0.142815 -0.0160935 -1.03306e-19)
(0.140902 -0.0104063 -2.33471e-21)
(0.13869 -0.004927 -6.02134e-22)
(0.136234 0.000258642 9.53651e-21)
(0.133593 0.00508372 -1.31094e-20)
(0.130828 0.00950101 3.1355e-22)
(0.127999 0.013482 7.88823e-21)
(0.125162 0.0170149 1.1308e-21)
(0.122366 0.0201018 2.07492e-21)
(0.119653 0.0227561 0)
(0.117055 0.0249988 0)
(0.114594 0.0268522 0)
(0.112285 0.0283419 0)
(0.110174 0.0295225 0)
(0.1086 0.030761 -1.96015e-21)
(0.132668 -0.0640339 5.61185e-21)
(0.13283 -0.0637654 -2.24194e-20)
(0.133479 -0.0634205 2.33051e-20)
(0.134264 -0.0626064 0)
(0.135103 -0.0612536 -2.04055e-20)
(0.135956 -0.0593361 2.35684e-20)
(0.136778 -0.0568403 -1.84493e-20)
(0.137514 -0.0537639 1.56339e-20)
(0.138104 -0.050122 0)
(0.138488 -0.0459506 4.35793e-21)
(0.138613 -0.0413066 -2.09346e-21)
(0.138432 -0.0362664 -4.72144e-21)
(0.137912 -0.0309227 1.14261e-21)
(0.137034 -0.0253802 -2.75015e-22)
(0.135795 -0.0197494 1.32166e-19)
(0.134209 -0.0141402 -1.3087e-19)
(0.132307 -0.00865576 -1.02689e-21)
(0.13013 -0.00338777 -2.97173e-21)
(0.127726 0.0015875 1.09686e-20)
(0.125152 0.00621092 1.05381e-21)
(0.122462 0.010441 -9.40494e-21)
(0.119711 0.0142526 -1.23651e-21)
(0.116949 0.0176356 -2.22704e-20)
(0.114219 0.020592 1.80391e-20)
(0.111561 0.0231339 -1.75478e-20)
(0.109005 0.0252802 1.96264e-20)
(0.10657 0.0270504 0)
(0.104271 0.0284679 -1.90409e-20)
(0.102157 0.0295858 1.8435e-20)
(0.100556 0.0307589 4.23692e-21)
(0.123003 -0.0628667 1.84262e-20)
(0.123288 -0.0623411 -2.39696e-20)
(0.124054 -0.0617384 -2.07084e-20)
(0.124924 -0.0606712 2.4707e-20)
(0.125817 -0.0590752 2.46209e-20)
(0.12669 -0.0569336 -4.77909e-20)
(0.127501 -0.0542438 3.22268e-20)
(0.128198 -0.0510134 -8.27336e-21)
(0.128727 -0.0472665 0)
(0.129036 -0.0430455 -5.18513e-21)
(0.129079 -0.0384108 4.72576e-21)
(0.12882 -0.0334391 -1.67735e-22)
(0.128233 -0.0282197 -4.00845e-23)
(0.127307 -0.0228503 -1.57637e-22)
(0.126046 -0.017432 1.64694e-19)
(0.124466 -0.0120629 -1.63899e-19)
(0.122598 -0.00683452 -2.19752e-21)
(0.120479 -0.00182663 1.57685e-21)
(0.118157 0.00289462 -5.47283e-22)
(0.115678 0.00727829 -1.19823e-20)
(0.113093 0.0112886 1.08241e-20)
(0.110449 0.0149041 2.65368e-21)
(0.107789 0.0181157 1.2507e-20)
(0.105154 0.0209252 -3.08577e-20)
(0.102576 0.0233429 3.9262e-20)
(0.100084 0.0253849 -1.91504e-20)
(0.0976953 0.0270676 -2.23267e-20)
(0.0954245 0.0284116 2.16122e-20)
(0.0933209 0.0294674 1.97776e-20)
(0.0917023 0.030576 -2.50005e-20)
(0.11196 -0.0609329 2.95444e-20)
(0.112389 -0.060136 3.49501e-21)
(0.113272 -0.0592734 -4.48408e-21)
(0.114226 -0.0579556 -2.64297e-20)
(0.115165 -0.0561278 -2.93293e-21)
(0.116048 -0.053784 4.20014e-21)
(0.116836 -0.0509327 7.09411e-23)
(0.117482 -0.0475917 0)
(0.117939 -0.0437928 0)
(0.118164 -0.0395839 -5.25172e-21)
(0.118122 -0.0350272 5.90972e-21)
(0.117786 -0.0301976 1.68931e-22)
(0.11714 -0.0251789 0)
(0.11618 -0.0200598 -2.21139e-22)
(0.114915 -0.0149295 2.01927e-19)
(0.113366 -0.00987335 -2.00986e-19)
(0.111559 -0.00496901 -9.36586e-22)
(0.109532 -0.000283771 0)
(0.107324 0.00412718 5.51182e-22)
(0.104977 0.00822145 -9.71488e-21)
(0.102533 0.0119692 9.40695e-21)
(0.100031 0.0153522 -1.40803e-21)
(0.0975094 0.0183627 0)
(0.095001 0.0210015 1.8781e-22)
(0.0925356 0.0232769 4.68142e-21)
(0.0901372 0.0252016 -2.98178e-21)
(0.0878206 0.0267884 2.51463e-20)
(0.0856008 0.0280544 -2.22008e-23)
(0.0835271 0.0290467 2.0875e-21)
(0.0819043 0.0300897 -2.0312e-20)
(0.0992531 -0.0579218 -2.85084e-20)
(0.0998366 -0.0568576 2.4432e-20)
(0.100835 -0.0557406 0)
(0.101862 -0.0541888 -2.42584e-20)
(0.102832 -0.0521588 2.86028e-20)
(0.103707 -0.0496559 -1.26497e-20)
(0.104453 -0.0466998 2.02498e-20)
(0.105031 -0.0433171 -9.0802e-21)
(0.105403 -0.0395464 0)
(0.105537 -0.0354389 0)
(0.105409 -0.0310565 1.94863e-21)
(0.105001 -0.0264698 -1.84482e-21)
(0.104308 -0.0217544 0)
(0.103334 -0.0169876 -4.68702e-23)
(0.102093 -0.0122448 2.43669e-19)
(0.100605 -0.00759633 -2.43708e-19)
(0.0988976 -0.00310482 2.21322e-22)
(0.0970023 0.00117609 0)
(0.0949524 0.00520278 4.92077e-21)
(0.092782 0.00894174 -4.75273e-21)
(0.0905243 0.0123691 0)
(0.0882113 0.0154699 0)
(0.0858724 0.0182372 1.59954e-20)
(0.0835349 0.0206706 -2.97591e-20)
(0.0812231 0.0227757 1.22436e-20)
(0.078957 0.0245616 -2.67211e-20)
(0.076749 0.0260371 2.95555e-20)
(0.0746129 0.0272149 0)
(0.0725972 0.0281377 -2.84747e-20)
(0.0709908 0.0291095 2.25749e-20)
(0.0844791 -0.0533421 -2.88715e-20)
(0.0852135 -0.0520358 2.80756e-20)
(0.0863059 -0.0506942 -2.92305e-20)
(0.0873797 -0.0489551 8.08051e-22)
(0.088352 -0.0467874 1.22095e-21)
(0.0891899 -0.0442071 4.01269e-20)
(0.0898678 -0.0412434 -1.21584e-20)
(0.0903565 -0.0379303 -1.19882e-21)
(0.0906291 -0.0343109 7.14057e-21)
(0.0906653 -0.0304369 -1.25172e-20)
(0.0904522 -0.0263671 5.30589e-21)
(0.0899852 -0.0221647 6.00834e-22)
(0.0892678 -0.017894 -1.413e-22)
(0.0883108 -0.0136183 -7.75381e-22)
(0.0871313 -0.00939667 2.91742e-19)
(0.0857507 -0.00528257 -2.90348e-19)
(0.0841933 -0.00132245 -3.37129e-21)
(0.0824848 0.00244467 8.02053e-21)
(0.0806509 0.00598727 -4.86162e-21)
(0.0787169 0.00928093 -1.37147e-20)
(0.0767068 0.0123078 2.827e-20)
(0.0746433 0.015056 -1.43762e-20)
(0.0725478 0.0175189 -1.81462e-21)