/*--------------------------------*- C++ -*----------------------------------*\
  =========                 |
  \\      /  F ield         | OpenFOAM: The Open Source CFD Toolbox
   \\    /   O peration     | Website:  https://openfoam.org
    \\  /    A nd           | Version:  12
     \\/     M anipulation  |
\*---------------------------------------------------------------------------*/
FoamFile
{
    format      ascii;
    class       volSymmTensorField;
    location    "240";
    object      UPrime2Mean;
}
// * * * * * * * * * * * * * * * * * * * * * * * * * * * * * * * * * * * * * //

dimensions      [0 2 -2 0 0 0 0];

internalField   nonuniform List<symmTensor> 
6750
(
(2.7424e-10 4.00552e-09 0 1.12451e-07 0 0)
(6.46242e-09 7.69735e-08 0 1.57056e-06 0 0)
(2.09656e-08 2.58965e-07 0 5.01063e-06 0 0)
(3.89239e-08 5.25316e-07 0 1.04564e-05 0 0)
(9.26795e-08 1.12544e-06 0 1.77175e-05 0 0)
(2.60971e-11 4.22599e-10 0 8.53657e-08 0 0)
(1.16154e-09 3.15881e-08 0 1.31962e-06 0 0)
(8.04592e-09 1.56657e-07 0 4.29712e-06 0 0)
(2.78141e-08 4.37082e-07 0 8.95092e-06 0 0)
(7.42978e-08 9.51794e-07 0 1.49735e-05 0 0)
(2.15273e-11 4.61787e-10 0 7.76598e-08 0 0)
(9.35291e-10 3.12555e-08 0 1.20361e-06 0 0)
(8.33438e-09 1.68392e-07 0 3.8695e-06 0 0)
(3.25068e-08 4.77861e-07 0 7.88646e-06 0 0)
(8.45664e-08 9.86281e-07 0 1.28153e-05 0 0)
(1.83137e-11 4.23779e-10 0 6.79508e-08 0 0)
(1.36176e-09 3.70135e-08 0 1.06355e-06 0 0)
(1.14936e-08 1.92454e-07 0 3.38475e-06 0 0)
(4.19836e-08 5.2131e-07 0 6.8032e-06 0 0)
(1.01e-07 1.02238e-06 0 1.09023e-05 0 0)
(1.39059e-11 3.27069e-10 0 5.70878e-08 0 0)
(1.83533e-09 4.03479e-08 0 9.10397e-07 0 0)
(1.50377e-08 2.0632e-07 0 2.88858e-06 0 0)
(5.23395e-08 5.43747e-07 0 5.76765e-06 0 0)
(1.20009e-07 1.03815e-06 0 9.18614e-06 0 0)
(9.30978e-12 1.85228e-10 0 4.64163e-08 0 0)
(2.20273e-09 4.05939e-08 0 7.56864e-07 0 0)
(1.83005e-08 2.09016e-07 0 2.40491e-06 0 0)
(6.27304e-08 5.46183e-07 0 4.7904e-06 0 0)
(1.41326e-07 1.03294e-06 0 7.60981e-06 0 0)
(7.0537e-12 4.23825e-11 0 3.66295e-08 0 0)
(2.47969e-09 3.88037e-08 0 6.10426e-07 0 0)
(2.13618e-08 2.03716e-07 0 1.94646e-06 0 0)
(7.34949e-08 5.33292e-07 0 3.87613e-06 0 0)
(1.65433e-07 1.00794e-06 0 6.15162e-06 0 0)
(8.51985e-12 -7.09968e-11 0 2.79904e-08 0 0)
(2.71624e-09 3.5842e-08 0 4.75456e-07 0 0)
(2.43919e-08 1.92611e-07 0 1.52233e-06 0 0)
(8.48554e-08 5.07223e-07 0 3.03348e-06 0 0)
(1.92191e-07 9.61635e-07 0 4.81328e-06 0 0)
(1.37609e-11 -1.44802e-10 0 2.05632e-08 0 0)
(2.94239e-09 3.21468e-08 0 3.54841e-07 0 0)
(2.7428e-08 1.76651e-07 0 1.14064e-06 0 0)
(9.65896e-08 4.68354e-07 0 2.27511e-06 0 0)
(2.20552e-07 8.91643e-07 0 3.61028e-06 0 0)
(2.18771e-11 -1.80474e-10 0 1.43429e-08 0 0)
(3.16441e-09 2.79083e-08 0 2.50662e-07 0 0)
(3.03821e-08 1.56305e-07 0 8.08596e-07 0 0)
(1.08132e-07 4.16933e-07 0 1.6144e-06 0 0)
(2.48825e-07 7.96939e-07 0 2.5623e-06 0 0)
(3.14197e-11 -1.84342e-10 0 9.30701e-09 0 0)
(3.3736e-09 2.32302e-08 0 1.64357e-07 0 0)
(3.31006e-08 1.32096e-07 0 5.31854e-07 0 0)
(1.18759e-07 3.54055e-07 0 1.06284e-06 0 0)
(2.75039e-07 6.79036e-07 0 1.68724e-06 0 0)
(4.08168e-11 -1.63949e-10 0 5.42331e-09 0 0)
(3.55324e-09 1.82088e-08 0 9.66688e-08 0 0)
(3.54121e-08 1.04788e-07 0 3.13779e-07 0 0)
(1.27778e-07 2.81869e-07 0 6.27592e-07 0 0)
(2.97384e-07 5.42003e-07 0 9.96487e-07 0 0)
(4.84496e-11 -1.25454e-10 0 2.64301e-09 0 0)
(3.68207e-09 1.2963e-08 0 4.75946e-08 0 0)
(3.71673e-08 7.53803e-08 0 1.55067e-07 0 0)
(1.34653e-07 2.03311e-07 0 3.10414e-07 0 0)
(3.14519e-07 3.917e-07 0 4.92953e-07 0 0)
(5.16195e-11 -7.21335e-11 0 8.95001e-10 0 0)
(3.72945e-09 7.64009e-09 0 1.64049e-08 0 0)
(3.82621e-08 4.50071e-08 0 5.37729e-08 0 0)
(1.39077e-07 1.21662e-07 0 1.07731e-07 0 0)
(3.25724e-07 2.34733e-07 0 1.7111e-07 0 0)
(4.51354e-11 -1.77649e-11 0 9.66984e-11 0 0)
(3.6264e-09 2.42297e-09 0 1.70569e-09 0 0)
(3.86674e-08 1.4771e-08 0 5.73113e-09 0 0)
(1.41052e-07 4.00972e-08 0 1.15327e-08 0 0)
(3.30975e-07 7.75089e-08 0 1.83503e-08 0 0)
(4.52086e-11 1.39867e-11 0 1.20567e-10 0 0)
(3.62704e-09 -2.49869e-09 0 1.82218e-09 0 0)
(3.86662e-08 -1.5042e-08 0 5.97078e-09 0 0)
(1.41047e-07 -4.06015e-08 0 1.18763e-08 0 0)
(3.30962e-07 -7.82496e-08 0 1.87802e-08 0 0)
(5.15289e-11 6.9699e-11 0 9.66846e-10 0 0)
(3.72784e-09 -7.71631e-09 0 1.67649e-08 0 0)
(3.82564e-08 -4.52753e-08 0 5.45029e-08 0 0)
(1.39061e-07 -1.22158e-07 0 1.08775e-07 0 0)
(3.25683e-07 -2.35457e-07 0 1.72414e-07 0 0)
(4.82513e-11 1.24166e-10 0 2.76357e-09 0 0)
(3.67886e-09 -1.30351e-08 0 4.82056e-08 0 0)
(3.71569e-08 -7.56385e-08 0 1.56301e-07 0 0)
(1.34625e-07 -2.03787e-07 0 3.12175e-07 0 0)
(3.1445e-07 -3.92385e-07 0 4.9515e-07 0 0)
(4.05771e-11 1.64129e-10 0 5.59002e-09 0 0)
(3.54886e-09 -1.82736e-08 0 9.75332e-08 0 0)
(3.53981e-08 -1.0503e-07 0 3.15523e-07 0 0)
(1.27741e-07 -2.82314e-07 0 6.30074e-07 0 0)
(2.97291e-07 -5.42629e-07 0 9.99576e-07 0 0)
(3.12007e-11 1.86314e-10 0 9.51522e-09 0 0)
(3.36871e-09 -2.32857e-08 0 1.65473e-07 0 0)
(3.30849e-08 -1.32318e-07 0 5.34107e-07 0 0)
(1.18716e-07 -3.54461e-07 0 1.06603e-06 0 0)
(2.74925e-07 -6.79585e-07 0 1.6912e-06 0 0)
(2.1745e-11 1.84314e-10 0 1.45862e-08 0 0)
(3.15962e-09 -2.79533e-08 0 2.52026e-07 0 0)
(3.03666e-08 -1.56505e-07 0 8.11353e-07 0 0)
(1.08088e-07 -4.17296e-07 0 1.61828e-06 0 0)
(2.48692e-07 -7.97391e-07 0 2.56709e-06 0 0)
(1.37802e-11 1.50439e-10 0 2.08337e-08 0 0)
(2.93763e-09 -3.21775e-08 0 3.56444e-07 0 0)
(2.74107e-08 -1.76819e-07 0 1.14389e-06 0 0)
(9.65431e-08 -4.68659e-07 0 2.27963e-06 0 0)
(2.20411e-07 -8.91982e-07 0 3.61575e-06 0 0)
(8.72906e-12 7.83436e-11 0 2.82783e-08 0 0)
(2.71056e-09 -3.58483e-08 0 4.77271e-07 0 0)
(2.43667e-08 -1.92714e-07 0 1.52603e-06 0 0)
(8.47933e-08 -5.07424e-07 0 3.03859e-06 0 0)
(1.92043e-07 -9.61858e-07 0 4.81936e-06 0 0)
(7.43938e-12 -3.38832e-11 0 3.69235e-08 0 0)
(2.47358e-09 -3.87844e-08 0 6.12412e-07 0 0)
(2.13322e-08 -2.03753e-07 0 1.95059e-06 0 0)
(7.34318e-08 -5.3343e-07 0 3.88199e-06 0 0)
(1.65288e-07 -1.00812e-06 0 6.15895e-06 0 0)
(9.83078e-12 -1.76772e-10 0 4.67075e-08 0 0)
(2.19771e-09 -4.05606e-08 0 7.58987e-07 0 0)
(1.82763e-08 -2.09032e-07 0 2.40946e-06 0 0)
(6.26881e-08 -5.46352e-07 0 4.79704e-06 0 0)
(1.4121e-07 -1.03318e-06 0 7.61839e-06 0 0)
(1.4491e-11 -3.19251e-10 0 5.73709e-08 0 0)
(1.83129e-09 -4.03027e-08 0 9.12636e-07 0 0)
(1.50176e-08 -2.06317e-07 0 2.89359e-06 0 0)
(5.23055e-08 -5.43921e-07 0 5.77528e-06 0 0)
(1.19901e-07 -1.03838e-06 0 9.19634e-06 0 0)
(1.88634e-11 -4.17312e-10 0 6.82224e-08 0 0)
(1.3586e-09 -3.69621e-08 0 1.06587e-06 0 0)
(1.14774e-08 -1.92441e-07 0 3.39019e-06 0 0)
(4.19577e-08 -5.21518e-07 0 6.812e-06 0 0)
(1.00899e-07 -1.02258e-06 0 1.09145e-05 0 0)
(2.19104e-11 -4.56782e-10 0 7.79183e-08 0 0)
(9.32092e-10 -3.11992e-08 0 1.20599e-06 0 0)
(8.31934e-09 -1.68366e-07 0 3.87536e-06 0 0)
(3.24762e-08 -4.7802e-07 0 7.89646e-06 0 0)
(8.44589e-08 -9.86287e-07 0 1.28297e-05 0 0)
(2.62407e-11 -4.19821e-10 0 8.56085e-08 0 0)
(1.15689e-09 -3.15391e-08 0 1.322e-06 0 0)
(8.02837e-09 -1.56625e-07 0 4.30328e-06 0 0)
(2.77758e-08 -4.37167e-07 0 8.96205e-06 0 0)
(7.419e-08 -9.51451e-07 0 1.49905e-05 0 0)
(2.73626e-10 -4.00318e-09 0 1.12679e-07 0 0)
(6.4509e-09 -7.69176e-08 0 1.57284e-06 0 0)
(2.09354e-08 -2.58855e-07 0 5.01682e-06 0 0)
(3.88704e-08 -5.25037e-07 0 1.04681e-05 0 0)
(9.25564e-08 -1.12441e-06 0 1.77362e-05 0 0)
(9.95543e-07 6.24845e-06 0 4.27992e-05 0 0)
(2.32086e-06 1.14596e-05 0 6.02541e-05 0 0)
(4.07545e-06 1.75251e-05 0 7.93304e-05 0 0)
(5.96296e-06 2.37589e-05 -5.10626e-25 9.91066e-05 -1.28925e-24 1.15356e-42)
(7.92685e-06 2.99978e-05 0 0.000118437 0 0)
(9.91372e-06 3.60426e-05 0 0.000136362 0 0)
(1.18534e-05 4.16512e-05 5.24817e-23 0.00015201 1.35788e-22 4.44825e-39)
(1.36953e-05 4.66084e-05 -5.79459e-23 0.00016452 -1.4875e-22 4.52669e-39)
(1.53724e-05 5.06824e-05 -4.92139e-25 0.00017305 -1.2591e-24 2.5417e-43)
(1.6968e-05 5.39749e-05 -3.42561e-23 0.000177514 -8.70918e-23 9.58631e-40)
(1.83976e-05 5.62229e-05 5.65001e-26 0.000177176 -1.36839e-25 1.97057e-42)
(1.96978e-05 5.72931e-05 1.75289e-25 0.000171251 2.20978e-25 2.32426e-42)
(2.08877e-05 5.72879e-05 2.03226e-23 0.000160668 4.85545e-23 2.27953e-40)
(2.19969e-05 5.62541e-05 2.08327e-23 0.000146173 4.83751e-23 1.85847e-40)
(2.30577e-05 5.42565e-05 5.00965e-23 0.000128846 1.12313e-22 8.31195e-40)
(2.41012e-05 5.13592e-05 -5.15468e-23 0.000109971 -1.10967e-22 8.31337e-40)
(2.51641e-05 4.76258e-05 2.12534e-23 9.08875e-05 4.35728e-23 1.10831e-40)
(2.62839e-05 4.31077e-05 2.02989e-23 7.28185e-05 3.92814e-23 7.93445e-41)
(2.75012e-05 3.78657e-05 -1.12342e-24 5.67927e-05 -2.07991e-24 2.46866e-42)
(2.88679e-05 3.19834e-05 -1.21293e-24 4.35487e-05 -2.01674e-24 2.13842e-42)
(3.04834e-05 2.55908e-05 -4.16265e-23 3.34805e-05 -6.28954e-23 2.78535e-40)
(3.23551e-05 1.86809e-05 6.4038e-25 2.64309e-05 8.45233e-25 5.58194e-44)
(3.44246e-05 1.14033e-05 -7.81914e-23 2.24006e-05 -8.94599e-23 7.22624e-40)
(3.66912e-05 3.93752e-06 7.95278e-23 2.10493e-05 7.49873e-23 7.09889e-40)
(3.91276e-05 -3.54439e-06 0 2.18802e-05 0 0)
(4.16761e-05 -1.08793e-05 0 2.43335e-05 0 0)
(4.42649e-05 -1.79165e-05 1.22367e-24 2.78563e-05 4.16083e-25 1.1546e-43)
(4.68519e-05 -2.45065e-05 0 3.19471e-05 0 0)
(4.94944e-05 -3.04718e-05 0 3.61431e-05 0 0)
(5.18904e-05 -3.56238e-05 0 3.99509e-05 0 0)
(1.55725e-06 8.60597e-06 0 5.13017e-05 0 0)
(3.05264e-06 1.41974e-05 0 7.00032e-05 0 0)
(4.78093e-06 2.00837e-05 0 8.87019e-05 0 0)
(6.61858e-06 2.60349e-05 5.09682e-25 0.000107193 1.28012e-24 1.02603e-42)
(8.54601e-06 3.19689e-05 0 0.000124786 0 0)
(1.05029e-05 3.7683e-05 0 0.000140758 0 0)
(1.24291e-05 4.29639e-05 -5.02977e-23 0.000154368 -1.27236e-22 3.84395e-39)
(1.42861e-05 4.76301e-05 5.62344e-23 0.000164886 1.40299e-22 4.02566e-39)
(1.60226e-05 5.14984e-05 4.73409e-25 0.000171649 1.17288e-24 2.24028e-43)
(1.77208e-05 5.46924e-05 0 0.000174788 0 0)
(1.92867e-05 5.68807e-05 0 0.000173283 0 0)
(2.07845e-05 5.80505e-05 3.65402e-23 0.00016692 8.54208e-23 7.02798e-40)
(2.21933e-05 5.82259e-05 -3.84459e-23 0.000156493 -8.72164e-23 7.07226e-40)
(2.3533e-05 5.7435e-05 0 0.000142682 0 0)
(2.48163e-05 5.57109e-05 1.40559e-22 0.000126428 2.99096e-22 6.1354e-39)
(2.60541e-05 5.30895e-05 -1.44936e-22 0.000108827 -2.96637e-22 6.13141e-39)
(2.72644e-05 4.96134e-05 0 9.10068e-05 0 0)
(2.84749e-05 4.53336e-05 -4.1307e-23 7.40209e-05 -7.66274e-23 3.37859e-40)
(2.97226e-05 4.03121e-05 4.22591e-23 5.87492e-05 7.37927e-23 3.41198e-40)
(3.10607e-05 3.46386e-05 0 4.58533e-05 0 0)
(3.25309e-05 2.84007e-05 0 3.57097e-05 0 0)
(3.41914e-05 2.16661e-05 -6.22888e-25 2.83102e-05 -8.26267e-25 4.91199e-44)
(3.60532e-05 1.45826e-05 7.75792e-23 2.36617e-05 8.86741e-23 6.54026e-40)
(3.80806e-05 7.2849e-06 -7.98803e-23 2.1527e-05 -7.68822e-23 6.64972e-40)
(4.02613e-05 -6.40312e-08 0 2.15271e-05 0 0)
(4.25576e-05 -7.31084e-06 0 2.32015e-05 0 0)
(4.49079e-05 -1.43192e-05 -1.16522e-24 2.60677e-05 -5.05769e-25 1.02432e-43)
(4.72501e-05 -2.09692e-05 0 2.96704e-05 0 0)
(4.96276e-05 -2.71522e-05 0 3.36107e-05 0 0)
(5.19559e-05 -3.29333e-05 0 3.76454e-05 0 0)
(2.16569e-06 1.08336e-05 0 5.79641e-05 0 0)
(3.63334e-06 1.61502e-05 0 7.58806e-05 0 0)
(5.34233e-06 2.18088e-05 0 9.34885e-05 0 0)
(7.20378e-06 2.76227e-05 -3.45492e-23 0.000110791 -8.58255e-23 4.16263e-39)
(9.16955e-06 3.34286e-05 4.01957e-23 0.000127134 9.87864e-23 4.26092e-39)
(1.11819e-05 3.90208e-05 -4.77037e-23 0.000141806 -1.17108e-22 4.26889e-39)
(1.32012e-05 4.42199e-05 5.34208e-23 0.0001541 1.28927e-22 4.34956e-39)
(1.51987e-05 4.88635e-05 -9.35892e-25 0.000163363 -2.2346e-24 1.00918e-42)
(1.71473e-05 5.28176e-05 0 0.000169078 0 0)
(1.91136e-05 5.61759e-05 0 0.000171413 0 0)
(2.10112e-05 5.85796e-05 1.16867e-24 0.00016924 2.5902e-24 8.33237e-43)
(2.29021e-05 6.0064e-05 0 0.000162744 0 0)
(2.47359e-05 6.05867e-05 0 0.000152575 0 0)
(2.65138e-05 6.01452e-05 3.43435e-25 0.000139366 6.90562e-25 4.01793e-44)
(2.82198e-05 5.87355e-05 2.5397e-22 0.000123973 4.93245e-22 1.74597e-38)
(2.98365e-05 5.63636e-05 -2.62925e-22 0.000107367 -4.90529e-22 1.74594e-38)
(3.13558e-05 5.30526e-05 -3.70523e-25 9.05414e-05 -6.62371e-25 2.86195e-44)
(3.27856e-05 4.88465e-05 0 7.44214e-05 0 0)
(3.4154e-05 4.38143e-05 0 5.97882e-05 0 0)
(3.55108e-05 3.80531e-05 -1.48468e-24 4.72304e-05 -2.22285e-24 3.08754e-43)
(3.69145e-05 3.16771e-05 0 3.71101e-05 0 0)
(3.84194e-05 2.48193e-05 0 2.95858e-05 0 0)
(4.00532e-05 1.75971e-05 1.41241e-24 2.45863e-05 1.5512e-24 1.97103e-43)
(4.18193e-05 1.01656e-05 8.87511e-23 2.19483e-05 8.294e-23 6.83717e-40)
(4.37148e-05 2.68654e-06 -8.94706e-23 2.13732e-05 -6.90625e-23 6.71038e-40)
(4.57202e-05 -4.68754e-06 8.89431e-23 2.24741e-05 5.40037e-23 5.71992e-40)
(4.77977e-05 -1.18202e-05 -8.98919e-23 2.48272e-05 -3.98533e-23 5.57715e-40)
(4.9895e-05 -1.85906e-05 0 2.80102e-05 0 0)
(5.19792e-05 -2.48911e-05 0 3.16381e-05 0 0)
(5.36935e-05 -3.08791e-05 0 3.55982e-05 0 0)
(2.76783e-06 1.29436e-05 0 6.42318e-05 0 0)
(4.21582e-06 1.80602e-05 5.13429e-23 8.13998e-05 1.28113e-22 1.93278e-38)
(5.96996e-06 2.36475e-05 -3.14767e-23 9.80604e-05 -7.66649e-23 5.10288e-39)
(7.90752e-06 2.94176e-05 -7.73139e-23 0.000114237 -1.8781e-22 2.00921e-38)
(9.96914e-06 3.51724e-05 9.03509e-23 0.000129309 2.16457e-22 1.98379e-38)
(1.21172e-05 4.07397e-05 -5.08614e-23 0.000142618 -1.19425e-22 4.81678e-39)
(1.43322e-05 4.59712e-05 0 0.000153534 0 0)
(1.65859e-05 5.07074e-05 -1.97822e-24 0.000161491 -4.41457e-24 4.27285e-42)
(1.89093e-05 5.49126e-05 0 0.000166186 0 0)
(2.12871e-05 5.85223e-05 0 0.00016762 0 0)
(2.37015e-05 6.1268e-05 -4.43699e-23 0.000164818 -9.02761e-23 1.01107e-39)
(2.61681e-05 6.3155e-05 4.49804e-23 0.000158212 8.7593e-23 9.0163e-40)
(2.86215e-05 6.40988e-05 0 0.000148316 0 0)
(3.1034e-05 6.40625e-05 -3.94947e-25 0.000135732 -7.14121e-25 4.42866e-44)
(3.33533e-05 6.30051e-05 3.92436e-22 0.000121226 6.82917e-22 3.50448e-38)
(3.5525e-05 6.09026e-05 -4.07932e-22 0.000105649 -6.80811e-22 3.50434e-38)
(3.75084e-05 5.7758e-05 4.30352e-25 8.98625e-05 6.89084e-25 3.15446e-44)
(3.92872e-05 5.36073e-05 0 7.46669e-05 0 0)
(4.08763e-05 4.85241e-05 5.50933e-23 6.07461e-05 7.9772e-23 3.78023e-40)
(4.2323e-05 4.26184e-05 -5.21371e-23 4.8629e-05 -7.10753e-23 3.30586e-40)
(4.36973e-05 3.60282e-05 -1.7088e-24 3.86648e-05 -2.1526e-24 3.03574e-43)
(4.50674e-05 2.89037e-05 0 3.10223e-05 0 0)
(4.64826e-05 2.13978e-05 3.31603e-24 2.57028e-05 3.39068e-24 9.31649e-43)
(4.79755e-05 1.36779e-05 0 2.25888e-05 0 0)
(4.95622e-05 5.91257e-06 -1.00535e-22 2.14486e-05 -7.55764e-23 6.90421e-40)
(5.12399e-05 -1.74213e-06 1.96283e-22 2.19647e-05 1.1934e-22 2.49682e-39)
(5.29953e-05 -9.14716e-06 -1.92817e-22 2.37726e-05 -8.92951e-23 2.2242e-39)
(5.48072e-05 -1.61786e-05 -9.32447e-23 2.64919e-05 -3.00161e-23 4.55452e-40)
(5.66082e-05 -2.27292e-05 1.9181e-22 2.9761e-05 3.51428e-23 1.92365e-39)
(5.75777e-05 -2.9056e-05 0 3.35794e-05 0 0)
(3.42925e-06 1.51415e-05 0 7.03697e-05 0 0)
(4.92156e-06 2.01973e-05 -5.77743e-23 8.67143e-05 -1.43242e-22 2.22287e-38)
(6.77353e-06 2.57783e-05 6.85331e-23 0.00010231 1.65383e-22 2.14869e-38)
(8.83717e-06 3.15401e-05 0 0.000117216 0 0)
(1.10646e-05 3.73001e-05 0 0.00013088 0 0)
(1.34417e-05 4.29199e-05 -1.70922e-24 0.000142712 -3.78789e-24 4.9442e-42)
(1.59635e-05 4.82677e-05 0 0.000152165 0 0)
(1.86089e-05 5.31892e-05 2.20977e-24 0.000158764 4.57944e-24 4.69304e-42)
(2.14422e-05 5.7708e-05 -3.89309e-23 0.000162428 -7.73266e-23 1.10024e-39)
(2.44042e-05 6.16362e-05 4.30416e-23 0.000162904 8.16329e-23 1.11681e-39)
(2.75205e-05 6.47875e-05 4.84364e-23 0.000159549 8.83795e-23 1.03396e-39)
(3.07545e-05 6.71131e-05 -5.09456e-23 0.000152868 -8.8322e-23 9.80314e-40)
(3.40314e-05 6.85108e-05 -1.69144e-24 0.00014331 -2.81273e-24 8.42202e-43)
(3.72838e-05 6.8907e-05 8.96481e-25 0.00013143 1.43108e-24 1.92355e-43)
(4.04148e-05 6.82277e-05 5.62902e-22 0.000117904 8.65906e-22 5.93235e-38)
(4.33253e-05 6.64212e-05 -5.87177e-22 0.000103462 -8.65868e-22 5.93207e-38)
(4.59339e-05 6.34698e-05 -9.98135e-25 8.88311e-05 -1.41591e-24 1.39999e-43)
(4.81945e-05 5.93984e-05 2.0248e-24 7.46835e-05 2.75156e-24 4.97354e-43)
(5.01065e-05 5.42792e-05 -6.46608e-23 6.16001e-05 -8.36486e-23 4.22422e-40)
(5.17146e-05 4.82302e-05 6.31736e-23 5.00435e-05 7.74379e-23 3.93472e-40)
(5.30982e-05 4.14047e-05 6.55623e-23 4.03394e-05 7.48687e-23 3.47299e-40)
(5.43473e-05 3.3974e-05 -6.35164e-23 3.2668e-05 -6.70619e-23 3.21475e-40)
(5.55411e-05 2.61189e-05 -3.84361e-24 2.70807e-05 -3.67221e-24 1.02323e-42)
(5.6741e-05 1.80254e-05 0 2.35151e-05 0 0)
(5.79869e-05 9.87435e-06 3.72411e-24 2.18064e-05 2.68158e-24 8.19662e-43)
(5.92946e-05 1.83098e-06 0 2.17071e-05 0 0)
(6.06713e-05 -5.95765e-06 0 2.29155e-05 0 0)
(6.21306e-05 -1.33589e-05 2.18873e-22 2.51018e-05 7.64598e-23 2.24186e-39)
(6.36035e-05 -2.0265e-05 -2.11838e-22 2.79334e-05 -4.78783e-23 2.04728e-39)
(6.3752e-05 -2.70969e-05 0 3.15082e-05 0 0)
(4.22597e-06 1.75563e-05 -5.0749e-23 7.61736e-05 -1.19386e-22 2.18703e-38)
(5.83638e-06 2.26503e-05 9.42559e-23 9.14593e-05 2.28219e-22 5.38891e-38)
(7.84442e-06 2.82631e-05 -3.74183e-23 0.000105815 -8.72093e-23 5.81251e-39)
(1.01035e-05 3.40586e-05 0 0.000119311 0 0)
(1.25864e-05 3.9882e-05 -5.24864e-23 0.000131462 -1.133e-22 5.50198e-39)
(1.52999e-05 4.56157e-05 5.86739e-23 0.000141744 1.20618e-22 5.29364e-39)
(1.82521e-05 5.11358e-05 -6.70278e-23 0.000149695 -1.32021e-22 4.89157e-39)
(2.14321e-05 5.62969e-05 7.77904e-23 0.000154942 1.44789e-22 5.3154e-39)
(2.49327e-05 6.11581e-05 0 0.000157567 0 0)
(2.86645e-05 6.54299e-05 3.00403e-24 0.0001571 5.05859e-24 4.55965e-42)
(3.26767e-05 6.89985e-05 -5.32696e-23 0.000153282 -8.58316e-23 1.05767e-39)
(3.68868e-05 7.17661e-05 2.9129e-23 0.000146601 4.40378e-23 2.89993e-40)
(4.12034e-05 7.36182e-05 4.01543e-24 0.000137464 5.54863e-24 6.99465e-42)
(4.55111e-05 7.44499e-05 3.22916e-23 0.000126378 4.5079e-23 2.1324e-40)
(4.96606e-05 7.41604e-05 7.70577e-22 0.000113926 1.04029e-21 9.08731e-38)
(5.34988e-05 7.26733e-05 -8.05927e-22 0.000100721 -1.04414e-21 9.08648e-38)
(5.68967e-05 6.99501e-05 3.83958e-23 8.73558e-05 4.80602e-23 1.59276e-40)
(5.9773e-05 6.60009e-05 -5.09399e-24 7.43761e-05 -6.13634e-24 4.79722e-42)
(6.21082e-05 6.08907e-05 3.76132e-23 6.2257e-05 4.32556e-23 1.04418e-40)
(6.39451e-05 5.47376e-05 -7.66211e-23 5.13888e-05 -8.41866e-23 4.65434e-40)
(6.53753e-05 4.77033e-05 -4.72777e-24 4.20648e-05 -4.88187e-24 1.52128e-42)
(6.65143e-05 3.99765e-05 0 3.44729e-05 0 0)
(6.74752e-05 3.17592e-05 1.44349e-22 2.86992e-05 1.26853e-22 1.13663e-39)
(6.83535e-05 2.32566e-05 -1.47639e-22 2.47344e-05 -1.16982e-22 1.18393e-39)
(6.92182e-05 1.46654e-05 1.41784e-22 2.24784e-05 9.80141e-23 9.49875e-40)
(7.01079e-05 6.16395e-06 -1.3606e-22 2.17532e-05 -8.02839e-23 8.69904e-40)
(7.10503e-05 -2.08757e-06 -8.28504e-24 2.23229e-05 -3.94709e-24 2.92889e-42)
(7.20911e-05 -9.94116e-06 -1.2682e-22 2.39142e-05 -4.71319e-23 6.33664e-40)
(7.31748e-05 -1.72803e-05 3.68413e-22 2.62312e-05 9.5819e-23 5.08843e-39)
(7.24206e-05 -2.47493e-05 -2.57192e-22 2.94311e-05 -3.61458e-23 2.45699e-39)
(5.23989e-06 2.02728e-05 2.72137e-23 8.13698e-05 6.24942e-23 5.5423e-39)
(7.05316e-06 2.54817e-05 -3.61752e-23 9.53558e-05 -8.36211e-23 7.07563e-39)
(9.29224e-06 3.11657e-05 -4.39034e-23 0.000108326 -9.67513e-23 6.88187e-39)
(1.18359e-05 3.70377e-05 5.2299e-23 0.000120306 1.08962e-22 7.06914e-39)
(1.46815e-05 4.29685e-05 -5.79561e-23 0.000130864 -1.14762e-22 5.95501e-39)
(1.78545e-05 4.88519e-05 7.13946e-23 0.000139551 1.32892e-22 6.88491e-39)
(2.13756e-05 5.45673e-05 2.34233e-24 0.000145988 4.06019e-24 5.6078e-42)
(2.52564e-05 5.9994e-05 0 0.000149925 0 0)
(2.95967e-05 6.51812e-05 -4.91387e-23 0.000151511 -7.70767e-23 1.29998e-39)
(3.43011e-05 6.97848e-05 -3.40767e-24 0.000150169 -5.71946e-24 1.19697e-42)
(3.94174e-05 7.37453e-05 -3.70684e-24 0.000145993 -5.91572e-24 9.9834e-43)
(4.48265e-05 7.69286e-05 6.85005e-23 0.000139402 9.08025e-23 1.23971e-39)
(5.04087e-05 7.92107e-05 3.3587e-23 0.000130778 4.29133e-23 2.16603e-40)
(5.59932e-05 8.04646e-05 -5.75478e-23 0.000120573 -7.02184e-23 5.42009e-40)
(6.13697e-05 8.05687e-05 1.0372e-21 0.000109284 1.22519e-21 1.3524e-37)
(6.63236e-05 7.94253e-05 -1.04434e-21 9.74044e-05 -1.18714e-21 1.24922e-37)
(7.06714e-05 7.69749e-05 -6.52036e-23 8.54007e-05 -7.19289e-23 3.85094e-40)
(7.42918e-05 7.32093e-05 5.00427e-23 7.36952e-05 5.33636e-23 2.06448e-40)
(7.71447e-05 6.81794e-05 8.90413e-23 6.26584e-05 9.14558e-23 5.21574e-40)
(7.92719e-05 6.19959e-05 4.74162e-24 5.26052e-05 4.4068e-24 7.07584e-43)
(8.07804e-05 5.4821e-05 4.57146e-24 4.37893e-05 3.94808e-24 6.60181e-43)
(8.18149e-05 4.68524e-05 -8.76901e-23 3.63957e-05 -7.72646e-23 4.01674e-40)
(8.25263e-05 3.83076e-05 0 3.05362e-05 0 0)
(8.30491e-05 2.94086e-05 -5.30551e-24 2.62477e-05 -3.88908e-24 1.19814e-42)
(8.34873e-05 2.0369e-05 1.51047e-22 2.34904e-05 9.95428e-23 8.80119e-40)
(8.39067e-05 1.13822e-05 -1.58965e-22 2.21522e-05 -9.14626e-23 9.79061e-40)
(8.43591e-05 2.62377e-06 1.51667e-22 2.20649e-05 7.32588e-23 7.94968e-40)
(8.49208e-05 -5.73625e-06 -1.40487e-22 2.30139e-05 -5.47941e-23 6.81522e-40)
(8.55564e-05 -1.35661e-05 -1.36174e-22 2.47491e-05 -3.94137e-23 5.69427e-40)
(8.38259e-05 -2.17802e-05 1.52862e-22 2.74398e-05 2.81539e-23 7.32884e-40)
(6.5719e-06 2.33601e-05 0 8.56967e-05 0 0)
(8.68783e-06 2.87412e-05 -3.5579e-23 9.81824e-05 -7.66423e-23 5.79506e-39)
(1.12497e-05 3.45267e-05 5.17679e-23 0.000109655 1.04481e-22 8.61113e-39)
(1.41854e-05 4.0503e-05 -5.83797e-23 0.000120039 -1.10778e-22 7.39763e-39)
(1.75178e-05 4.65599e-05 6.45943e-23 0.000128949 1.1411e-22 6.73088e-39)
(2.12914e-05 5.25983e-05 -7.05447e-23 0.000136018 -1.17024e-22 5.54999e-39)
(2.55362e-05 5.84965e-05 8.09402e-23 0.000140958 1.24447e-22 5.69895e-39)
(3.03173e-05 6.41941e-05 6.09338e-24 0.000143659 8.75155e-24 2.38145e-41)
(3.56773e-05 6.96371e-05 3.45013e-24 0.000144202 4.66081e-24 5.71468e-42)
(4.15755e-05 7.45335e-05 3.86982e-24 0.000142109 4.93174e-24 5.43836e-42)
(4.80174e-05 7.88322e-05 4.35209e-24 0.00013769 5.28053e-24 5.14571e-42)
(5.48585e-05 8.23826e-05 -2.38411e-24 0.000131293 -2.75193e-24 1.20073e-42)
(6.19369e-05 8.50553e-05 4.36371e-23 0.000123276 4.83725e-23 3.06916e-40)
(6.9019e-05 8.67103e-05 -2.20703e-23 0.000114041 -2.31808e-23 7.47199e-41)
(7.58257e-05 8.72119e-05 1.2817e-21 0.000103993 1.32498e-21 1.70303e-37)
(8.20738e-05 8.64439e-05 -1.39275e-21 9.35161e-05 -1.39135e-21 1.82913e-37)
(8.75203e-05 8.43253e-05 -2.502e-23 8.29559e-05 -2.44803e-23 4.06984e-41)
(9.2001e-05 8.08251e-05 4.51411e-23 7.26176e-05 4.27943e-23 1.39477e-40)
(9.54544e-05 7.59736e-05 -3.2536e-24 6.27702e-05 -2.99222e-24 5.95169e-43)
(9.79225e-05 6.98655e-05 -1.30141e-23 5.36522e-05 -1.15522e-23 8.42741e-42)
(9.95317e-05 6.26545e-05 -6.47823e-24 4.54721e-05 -5.50142e-24 1.87287e-42)
(0.00010046 5.45393e-05 -6.39202e-24 3.84022e-05 -5.14322e-24 1.65966e-42)
(0.0001009 4.57455e-05 -1.25426e-23 3.25708e-05 -9.4417e-24 5.88511e-42)
(0.00010103 3.65085e-05 2.05756e-22 2.80524e-05 1.42905e-22 1.43077e-39)
(0.000100993 2.70568e-05 -2.02724e-22 2.48609e-05 -1.28095e-22 1.39084e-39)
(0.000100887 1.75997e-05 1.82727e-22 2.29462e-05 1.01865e-22 1.00096e-39)
(0.000100793 8.32943e-06 -1.68577e-22 2.22055e-05 -8.1388e-23 8.58571e-40)
(0.00010082 -5.59434e-07 1.49957e-22 2.24853e-05 6.01964e-23 6.07658e-40)
(0.000100952 -8.91336e-06 -1.79139e-22 2.35862e-05 -5.75787e-23 8.69902e-40)
(9.81883e-05 -1.79518e-05 0 2.56464e-05 0 0)
(8.34725e-06 2.68623e-05 0 8.89085e-05 0 0)
(1.08835e-05 3.24466e-05 -2.63947e-24 9.97307e-05 -5.11079e-24 2.83652e-41)
(1.38772e-05 3.8345e-05 4.52703e-23 0.000109626 8.19624e-23 5.45267e-39)
(1.73297e-05 4.4427e-05 1.54583e-26 0.000118355 4.07937e-25 2.92657e-42)
(2.12917e-05 5.05984e-05 -7.25469e-23 0.000125594 -1.12229e-22 7.30918e-39)
(2.58257e-05 5.67641e-05 -5.33356e-24 0.000131057 -7.6984e-24 2.75825e-41)
(3.0972e-05 6.28022e-05 -6.01244e-24 0.000134541 -7.94805e-24 2.68297e-41)
(3.68593e-05 6.87253e-05 4.8502e-23 0.000136102 6.03636e-23 1.23137e-39)
(4.34489e-05 7.43407e-05 -6.69803e-23 0.000135653 -7.75774e-23 1.8596e-39)
(5.07718e-05 7.94655e-05 -6.42257e-26 0.000132969 -1.07677e-25 1.30093e-46)
(5.87694e-05 8.4024e-05 3.92869e-23 0.000128422 4.10547e-23 3.45905e-40)
(6.72785e-05 8.78778e-05 -4.31102e-23 0.000122326 -4.25287e-23 3.5007e-40)
(7.60808e-05 9.0895e-05 2.04818e-23 0.000115015 1.96838e-23 5.65841e-41)
(8.48724e-05 9.29309e-05 -2.51292e-23 0.000106829 -2.31537e-23 7.48516e-41)
(9.32985e-05 9.3841e-05 1.63406e-21 9.8091e-05 1.47977e-21 2.32536e-37)
(0.000101002 9.34929e-05 -1.71367e-21 8.90797e-05 -1.50834e-21 2.32539e-37)
(0.000107676 9.17825e-05 -2.88832e-23 8.0029e-05 -2.50129e-23 4.99897e-41)
(0.000113113 8.86513e-05 3.335e-23 7.11346e-05 2.82416e-23 6.2512e-41)
(0.00011723 8.41013e-05 -5.6072e-23 6.25694e-05 -4.63649e-23 1.39173e-40)
(0.000120073 7.82028e-05 7.53375e-23 5.44962e-05 6.06899e-23 2.42673e-40)
(0.000121792 7.10922e-05 -4.82213e-26 4.70743e-05 -2.49842e-26 7.2119e-47)
(0.000122601 6.29603e-05 -1.17591e-22 4.04557e-05 -8.71494e-23 4.45447e-40)
(0.00012274 5.40338e-05 1.30757e-22 3.47749e-05 9.21908e-23 5.48786e-40)
(0.000122434 4.45565e-05 1.42268e-23 3.01356e-05 9.30176e-24 5.78819e-42)
(0.000121871 3.47702e-05 1.36674e-23 2.65967e-05 8.27149e-24 5.06877e-42)
(0.000121184 2.48977e-05 -2.12204e-22 2.41649e-05 -1.15097e-22 1.1151e-39)
(0.000120488 1.51505e-05 2.85676e-24 2.27974e-05 1.73941e-24 3.36956e-42)
(0.000119928 5.74662e-06 2.26297e-22 2.24037e-05 9.34435e-23 1.21247e-39)
(0.000119506 -3.13599e-06 0 2.28384e-05 0 0)
(0.000115678 -1.30387e-05 0 2.41687e-05 0 0)
(1.07208e-05 3.07876e-05 0 9.07726e-05 0 0)
(1.38143e-05 3.65715e-05 5.1445e-23 9.9812e-05 8.85417e-23 8.75197e-39)
(1.73651e-05 4.25648e-05 8.26524e-26 0.000108076 4.67834e-25 2.7064e-42)
(2.1476e-05 4.87221e-05 -1.51677e-26 0.00011513 3.69722e-25 3.25233e-42)
(2.6229e-05 5.49645e-05 -1.58345e-22 0.000120712 -2.10378e-22 2.92185e-38)
(3.17026e-05 6.11988e-05 9.51584e-23 0.000124622 1.15878e-22 7.84342e-39)
(3.79557e-05 6.73158e-05 6.89988e-24 0.000126748 7.82667e-24 2.93084e-41)
(4.51455e-05 7.33571e-05 0 0.000127254 0 0)
(5.32011e-05 7.90543e-05 -6.67414e-23 0.000125929 -6.62523e-23 1.48644e-39)
(6.2181e-05 8.43142e-05 7.47161e-23 0.000122814 6.90125e-23 1.52123e-39)
(7.19708e-05 8.90476e-05 -4.43941e-23 0.000118271 -3.96174e-23 3.79433e-40)
(8.23785e-05 9.31357e-05 -1.22042e-25 0.000112592 -6.68215e-25 7.70119e-43)
(9.31209e-05 9.64528e-05 5.29169e-23 0.000106079 4.34192e-23 3.57245e-40)
(0.000103816 9.88575e-05 -1.77366e-24 9.90148e-05 -1.42859e-24 3.0683e-43)
(0.000114028 0.0001002 2.00181e-21 9.16397e-05 1.59158e-21 2.97218e-37)
(0.00012332 0.000100334 -2.09942e-21 8.41385e-05 -1.63392e-21 2.97491e-37)
(0.000131323 9.91282e-05 2.05795e-24 7.66433e-05 1.58593e-24 2.25932e-43)
(0.000137784 9.64912e-05 6.74918e-23 6.92503e-05 5.13434e-23 1.96043e-40)
(0.000142603 9.23894e-05 -1.73401e-25 6.20427e-05 -2.1139e-25 7.82626e-43)
(0.000145833 8.68599e-05 -8.62208e-23 5.51101e-05 -6.33218e-23 2.66477e-40)
(0.000147651 8.0013e-05 1.45376e-22 4.856e-05 1.03562e-22 6.25062e-40)
(0.000148314 7.20233e-05 -1.36153e-22 4.25176e-05 -9.4056e-23 5.42098e-40)
(0.000148111 6.31121e-05 0 3.7115e-05 0 0)
(0.000147321 5.35263e-05 -1.61913e-23 3.2475e-05 -1.00872e-23 6.32322e-42)
(0.000146177 4.35172e-05 2.52345e-22 2.86929e-05 1.455e-22 1.38579e-39)
(0.000144853 3.33208e-05 -5.07698e-22 2.5824e-05 -2.6893e-22 5.48587e-39)
(0.000143501 2.31674e-05 2.99727e-24 2.38811e-05 1.89598e-24 3.71126e-42)
(0.000142305 1.32986e-05 -1.16395e-23 2.28341e-05 -4.48121e-24 1.99956e-42)
(0.000141282 3.91476e-06 2.242e-22 2.25942e-05 8.08891e-23 9.47689e-40)
(0.000136386 -6.84494e-06 0 2.31262e-05 0 0)
(1.38796e-05 3.50937e-05 5.63263e-24 9.10841e-05 8.95669e-24 1.39096e-40)
(1.76856e-05 4.10313e-05 0 9.82732e-05 0 0)
(2.19348e-05 4.70697e-05 4.17421e-24 0.000104886 5.62848e-24 3.34535e-41)
(2.68624e-05 5.32401e-05 -7.33392e-23 0.000110285 -8.97158e-23 7.35484e-39)
(3.25831e-05 5.94761e-05 9.17075e-23 0.000114269 1.01565e-22 8.66072e-39)
(3.91874e-05 6.56862e-05 -1.06942e-22 0.000116723 -1.09538e-22 8.16814e-39)
(4.67711e-05 7.17971e-05 1.22725e-22 0.000117635 1.14686e-22 8.3947e-39)
(5.54681e-05 7.7819e-05 7.03147e-23 0.000117179 6.20242e-23 1.93283e-39)
(6.52301e-05 8.34898e-05 -1.69423e-22 0.000115142 -1.39826e-22 8.65955e-39)
(7.60961e-05 8.87788e-05 -5.88289e-24 0.000111766 -5.71587e-24 1.84152e-42)
(8.7908e-05 9.3598e-05 9.30046e-23 0.000107365 6.93162e-23 1.58395e-39)
(0.000100431 9.78537e-05 -5.47612e-23 0.000102217 -4.02172e-23 3.88775e-40)
(0.000113308 0.000101436 2.95076e-23 9.65854e-05 2.05914e-23 1.07061e-40)
(0.000126074 0.000104212 4.99156e-23 9.06981e-05 3.50164e-23 2.13699e-40)
(0.000138205 0.000106031 2.38819e-21 8.47207e-05 1.67124e-21 3.66165e-37)
(0.000149186 0.000106729 -2.53585e-21 7.87528e-05 -1.7517e-21 3.7634e-37)
(0.000158582 0.000106145 5.3404e-23 7.28371e-05 3.6863e-23 1.28749e-40)
(0.000166101 0.00010415 3.82245e-23 6.69815e-05 2.62537e-23 4.8099e-41)
(0.000171629 0.000100666 -7.76278e-23 6.11875e-05 -5.29145e-23 2.12574e-40)
(0.00017523 9.56867e-05 1.75687e-22 5.54751e-05 1.17958e-22 8.65765e-40)
(0.000177112 8.92895e-05 9.26687e-24 4.98991e-05 5.58771e-24 1.13768e-42)
(0.000177582 8.1625e-05 -2.89618e-22 4.45522e-05 -1.86064e-22 1.98817e-39)
(0.000176983 7.29024e-05 1.52453e-22 3.95559e-05 9.4742e-23 5.26626e-40)
(0.000175649 6.3367e-05 2.96336e-22 3.50424e-05 1.74522e-22 1.70998e-39)
(0.000173864 5.32763e-05 -2.91052e-22 3.11344e-05 -1.62503e-22 1.66293e-39)
(0.000171846 4.28782e-05 2.79733e-22 2.79273e-05 1.44333e-22 1.35742e-39)
(0.000169787 3.24202e-05 -2.911e-22 2.54839e-05 -1.37949e-22 1.48054e-39)
(0.000167907 2.21683e-05 1.6598e-23 2.38289e-05 7.00812e-24 4.38835e-42)
(0.000166239 1.23424e-05 0 2.29294e-05 0 0)
(0.0001603 7.82709e-07 -3.25387e-23 2.26295e-05 -9.7165e-24 1.51342e-41)
(1.80439e-05 3.96769e-05 -6.55725e-24 8.96806e-05 -9.04676e-24 1.50429e-40)
(2.27341e-05 4.56782e-05 6.56905e-23 9.50107e-05 8.07767e-23 1.03242e-38)
(2.78366e-05 5.16783e-05 -7.42096e-23 9.99992e-05 -8.18246e-23 9.49218e-39)
(3.37516e-05 5.77661e-05 -5.54349e-24 0.000103808 -5.60477e-24 3.6306e-41)