/*--------------------------------*- C++ -*----------------------------------*\
  =========                 |
  \\      /  F ield         | OpenFOAM: The Open Source CFD Toolbox
   \\    /   O peration     | Website:  https://openfoam.org
    \\  /    A nd           | Version:  12
     \\/     M anipulation  |
\*---------------------------------------------------------------------------*/
FoamFile
{
    format      ascii;
    class       volScalarField;
    location    "20";
    object      p;
}
// * * * * * * * * * * * * * * * * * * * * * * * * * * * * * * * * * * * * * //

dimensions      [0 2 -2 0 0 0 0];

internalField   nonuniform List<scalar> 
6750
(
-0.0531124
-0.0531814
-0.0533308
-0.0536033
-0.0543205
-0.0505928
-0.050596
-0.0506835
-0.0509116
-0.0511799
-0.0479097
-0.0479321
-0.0480252
-0.0481933
-0.0482964
-0.0452256
-0.0452842
-0.0453734
-0.0454874
-0.0455242
-0.0426144
-0.0427162
-0.0428115
-0.0428922
-0.0428882
-0.0401569
-0.0403047
-0.0404136
-0.0404731
-0.0404408
-0.0379059
-0.0380999
-0.0382241
-0.0382659
-0.03821
-0.0358945
-0.0361333
-0.0362715
-0.0362963
-0.0362182
-0.0341442
-0.034425
-0.034575
-0.0345825
-0.0344833
-0.0326667
-0.0329856
-0.0331446
-0.033135
-0.0330163
-0.0314648
-0.0318169
-0.031982
-0.0319564
-0.0318205
-0.0305333
-0.0309127
-0.031081
-0.0310411
-0.0308913
-0.0298592
-0.0302603
-0.0304286
-0.030377
-0.0302167
-0.0294235
-0.0298414
-0.030005
-0.0299458
-0.0297792
-0.0292074
-0.02963
-0.0297857
-0.0297252
-0.0295567
-0.0291797
-0.0296016
-0.0297564
-0.0296948
-0.0295254
-0.0293391
-0.0297551
-0.0299159
-0.0298535
-0.0296842
-0.0297159
-0.0301141
-0.0302779
-0.0302212
-0.0300565
-0.0303298
-0.0307053
-0.0308676
-0.0308207
-0.0306649
-0.0312005
-0.0315477
-0.0317054
-0.031671
-0.0315277
-0.0323416
-0.0326549
-0.0328051
-0.0327851
-0.0326575
-0.0337598
-0.0340341
-0.034174
-0.0341695
-0.03406
-0.0354534
-0.0356849
-0.0358118
-0.0358231
-0.0357336
-0.0374121
-0.0375983
-0.0377101
-0.0377373
-0.037669
-0.0396162
-0.0397558
-0.0398518
-0.0398959
-0.0398506
-0.0420341
-0.0421278
-0.0422101
-0.0422754
-0.0422585
-0.0446141
-0.0446654
-0.0447424
-0.044842
-0.0448669
-0.0472759
-0.0472925
-0.0473757
-0.0475319
-0.0476259
-0.049945
-0.0499447
-0.0500262
-0.0502477
-0.0505132
-0.0524581
-0.0525249
-0.052672
-0.0529458
-0.0536739
-0.0581907
-0.0578643
-0.0569857
-0.0563861
-0.0559741
-0.0556324
-0.0553241
-0.0550249
-0.0547078
-0.0543486
-0.0539282
-0.0534335
-0.0528576
-0.0522
-0.0514659
-0.0506645
-0.0498073
-0.0489061
-0.047971
-0.0470126
-0.0460409
-0.0450667
-0.0441013
-0.0431562
-0.0422428
-0.0413738
-0.040557
-0.039768
-0.0389968
-0.0386666
-0.0552865
-0.0548628
-0.0543861
-0.054177
-0.0540521
-0.0539403
-0.0538331
-0.0537195
-0.0535813
-0.0533987
-0.0531518
-0.0528231
-0.0524
-0.0518776
-0.0512596
-0.0505574
-0.0497883
-0.0489721
-0.0481322
-0.0472833
-0.0464404
-0.0456148
-0.0448149
-0.0440471
-0.0433159
-0.0426263
-0.041983
-0.0413616
-0.0406772
-0.0401223
-0.0530217
-0.0528977
-0.0526572
-0.0525494
-0.0524691
-0.0523943
-0.05233
-0.0522714
-0.0522079
-0.0521265
-0.0520127
-0.051852
-0.0516315
-0.0513421
-0.0509794
-0.0505439
-0.0500406
-0.0494776
-0.0488622
-0.0482068
-0.0475214
-0.0468164
-0.0461019
-0.0453881
-0.0446842
-0.0439998
-0.0433466
-0.042719
-0.0420453
-0.0414543
-0.0513614
-0.0514233
-0.0512559
-0.0511588
-0.05109
-0.0510389
-0.0510093
-0.0509993
-0.0510037
-0.0510147
-0.0510223
-0.0510141
-0.0509773
-0.0508993
-0.0507687
-0.0505766
-0.0503164
-0.0499843
-0.0495786
-0.0491025
-0.0485616
-0.0479645
-0.0473229
-0.0466503
-0.0459606
-0.0452677
-0.0445863
-0.0439196
-0.0432202
-0.0426071
-0.0499019
-0.0500115
-0.0498706
-0.0497954
-0.04976
-0.0497526
-0.0497764
-0.0498329
-0.0499208
-0.0500352
-0.0501682
-0.0503082
-0.0504412
-0.0505513
-0.0506224
-0.0506385
-0.0505854
-0.0504515
-0.0502282
-0.0499128
-0.0495069
-0.0490177
-0.0484566
-0.0478389
-0.0471812
-0.0465001
-0.0458119
-0.0451218
-0.0443952
-0.0437526
-0.0485014
-0.0486119
-0.0484981
-0.0484583
-0.0484666
-0.0485116
-0.0485988
-0.0487326
-0.0489135
-0.0491386
-0.0494004
-0.049687
-0.049983
-0.0502695
-0.0505262
-0.0507321
-0.0508672
-0.0509143
-0.0508584
-0.0506933
-0.0504173
-0.0500355
-0.0495588
-0.0490031
-0.0483864
-0.0477277
-0.0470446
-0.0463436
-0.0456005
-0.0449456
-0.0471373
-0.0472436
-0.0471627
-0.0471631
-0.0472186
-0.0473207
-0.0474773
-0.0476945
-0.0479739
-0.0483131
-0.0487047
-0.0491361
-0.04959
-0.050045
-0.0504772
-0.0508613
-0.0511727
-0.0513907
-0.0514921
-0.0514702
-0.0513193
-0.0510427
-0.0506506
-0.0501589
-0.0495867
-0.0489547
-0.0482821
-0.0475768
-0.0468249
-0.046177
-0.0458016
-0.0459093
-0.0458653
-0.0459089
-0.0460157
-0.0461803
-0.0464119
-0.0467176
-0.0470996
-0.0475555
-0.0480772
-0.0486513
-0.0492586
-0.0498755
-0.0504748
-0.0510278
-0.0515056
-0.0518808
-0.0521367
-0.0522526
-0.052223
-0.0520494
-0.0517414
-0.0513146
-0.0507891
-0.050187
-0.049529
-0.0488238
-0.0480664
-0.0474344
-0.0444863
-0.0446046
-0.044601
-0.0446914
-0.0448544
-0.0450869
-0.0453989
-0.0457979
-0.0462863
-0.0468609
-0.0475132
-0.0482282
-0.0489852
-0.0497584
-0.0505181
-0.0512327
-0.0518701
-0.0524005
-0.0528001
-0.0530491
-0.0531378
-0.0530658
-0.0528415
-0.0524806
-0.0520036
-0.051434
-0.0507938
-0.0500923
-0.0493296
-0.0487104
-0.0431868
-0.0433255
-0.0433654
-0.0435062
-0.0437304
-0.0440361
-0.0444336
-0.0449304
-0.0455284
-0.0462239
-0.047007
-0.0478616
-0.0487655
-0.049691
-0.0506061
-0.0514764
-0.0522678
-0.0529477
-0.0534882
-0.0538677
-0.0540735
-0.0541028
-0.0539628
-0.0536689
-0.0532421
-0.0527068
-0.0520871
-0.0513921
-0.0506217
-0.050001
-0.0419011
-0.0420679
-0.0421535
-0.0423485
-0.0426389
-0.0430229
-0.0435107
-0.0441094
-0.0448202
-0.0456384
-0.046553
-0.0475463
-0.0485945
-0.0496685
-0.0507352
-0.0517579
-0.0526999
-0.0535261
-0.0542058
-0.0547151
-0.0550384
-0.0551705
-0.0551169
-0.0548921
-0.0545173
-0.0540183
-0.0534211
-0.0527349
-0.0519524
-0.0513053
-0.0406292
-0.0408267
-0.0409593
-0.0412126
-0.041574
-0.0420414
-0.0426241
-0.0433287
-0.0441554
-0.0450984
-0.0461453
-0.047277
-0.0484683
-0.0496886
-0.0509034
-0.0520754
-0.053166
-0.0541379
-0.0549578
-0.0555983
-0.0560412
-0.0562791
-0.0563153
-0.0561628
-0.0558428
-0.0553823
-0.0548099
-0.0541346
-0.0533339
-0.0526269
-0.0393706
-0.0395958
-0.0397759
-0.0400918
-0.0405293
-0.0410847
-0.0417669
-0.0425814
-0.0435272
-0.0445971
-0.0457774
-0.0470477
-0.0483815
-0.0497469
-0.0511085
-0.052428
-0.0536659
-0.0547839
-0.055746
-0.0565219
-0.0570896
-0.0574386
-0.0575696
-0.0574942
-0.0572329
-0.0568138
-0.056269
-0.0556069
-0.054781
-0.0539749
-0.0381247
-0.0383679
-0.0385948
-0.0389784
-0.0394971
-0.0401454
-0.0409313
-0.0418594
-0.0429274
-0.0441268
-0.0454422
-0.0468519
-0.0483282
-0.0498384
-0.0513459
-0.0528123
-0.0541981
-0.0554637
-0.0565718
-0.0574886
-0.0581885
-0.0586567
-0.0588905
-0.0588992
-0.0587021
-0.0583287
-0.057815
-0.0571693
-0.0563112
-0.0553643
-0.0368889
-0.0371339
-0.0374061
-0.037863
-0.0384685
-0.039214
-0.0401078
-0.0411533
-0.042347
-0.0436786
-0.0451314
-0.0466822
-0.048302
-0.0499571
-0.0516108
-0.0532247
-0.0547598
-0.0561767
-0.057436
-0.0585015
-0.0593429
-0.0599407
-0.0602877
-0.0603898
-0.0602649
-0.0599434
-0.0594664
-0.0588416
-0.0579451
-0.0568172
-0.0356578
-0.0358822
-0.0361974
-0.0367337
-0.0374318
-0.0382794
-0.0392851
-0.040452
-0.041775
-0.0432424
-0.0448358
-0.0465303
-0.0482956
-0.050097
-0.0518978
-0.0536608
-0.0553482
-0.0569209
-0.0583385
-0.0595616
-0.0605557
-0.0612958
-0.0617692
-0.0619774
-0.0619358
-0.0616756
-0.0612436
-0.0606467
-0.0597078
-0.0583637
-0.0344212
-0.0345975
-0.0349524
-0.0355749
-0.036372
-0.0373268
-0.0384493
-0.0397421
-0.0411991
-0.0428068
-0.0445451
-0.0463871
-0.0483009
-0.050251
-0.0522014
-0.0541164
-0.0559598
-0.0576935
-0.0592767
-0.0606676
-0.0618271
-0.0627243
-0.0633404
-0.0636714
-0.0637287
-0.0635438
-0.06317
-0.0626122
-0.0616307
-0.060044
-0.0331609
-0.0332581
-0.0336488
-0.0343655
-0.0352694
-0.0363378
-0.0375829
-0.0390078
-0.0406049
-0.042359
-0.0442479
-0.0462426
-0.0483094
-0.0504123
-0.0525161
-0.0545868
-0.0565903
-0.0584901
-0.0602459
-0.0618145
-0.063153
-0.0642244
-0.0650032
-0.0654784
-0.0656564
-0.0655681
-0.0652727
-0.0647721
-0.0637551
-0.0619116
-0.0318474
-0.0318331
-0.0322569
-0.0330779
-0.0340989
-0.0352893
-0.036665
-0.0382301
-0.0399757
-0.0418847
-0.0439322
-0.0460868
-0.048313
-0.0505744
-0.0528365
-0.055067
-0.0572343
-0.0593042
-0.0612383
-0.0629936
-0.0645247
-0.0657892
-0.0667541
-0.0674006
-0.0677287
-0.0677679
-0.0675827
-0.0671695
-0.0661361
-0.0640397
-0.0304345
-0.0302798
-0.0307369
-0.0316764
-0.0328281
-0.0341522
-0.0356698
-0.0373867
-0.0392929
-0.0413685
-0.0435857
-0.0459101
-0.0483044
-0.0507315
-0.0531574
-0.0555516
-0.0578852
-0.0601275
-0.0622439
-0.0641932
-0.0659297
-0.0674067
-0.0685839
-0.0694341
-0.0699505
-0.0701601
-0.0701324
-0.0698557
-0.0688457
-0.0665277
-0.0288559
-0.028541
-0.0290374
-0.030115
-0.031416
-0.0328906
-0.0345665
-0.0364522
-0.0385359
-0.0407945
-0.0431963
-0.0457038
-0.0482772
-0.0508787
-0.0534746
-0.056036
-0.0585372
-0.0609525
-0.0632525
-0.0654007
-0.067353
-0.0690609
-0.0704781
-0.0715694
-0.0723208
-0.0727575
-0.0729531
-0.0728865
-0.0719708
-0.0695033
-0.0270255
-0.0265457
-0.027095
-0.0283353
-0.0298103
-0.031459
-0.0333179
-0.0353975
-0.0376832
-0.0401472
-0.0427534
-0.0454604
-0.0482265
-0.0510129
-0.053786
-0.0565187
-0.0591888
-0.0617761
-0.0642583
-0.0666062
-0.0687812
-0.070736
-0.0724214
-0.0737955
-0.0748372
-0.0755697
-0.0760711
-0.0763111
-0.0755936
-0.0731015
-0.0248516
-0.0242163
-0.0248342
-0.0262637
-0.0279433
-0.0298004
-0.0318788
-0.0341894
-0.0367118
-0.0394115
-0.0422471
-0.0451745
-0.0481501
-0.0511349
-0.0540954
-0.0570059
-0.0598473
-0.0626052
-0.065266
-0.0678107
-0.0702109
-0.0724265
-0.0744097
-0.0761141
-0.0775105
-0.0786163
-0.0795108
-0.0801541
-0.0797459
-0.0773877
-0.0222639
-0.0214705
-0.0221578
-0.0237993
-0.0257235
-0.0278399
-0.0301935
-0.0327886
-0.0355949
-0.0385697
-0.0416673
-0.044842
-0.0480503
-0.0512533
-0.0544179
-0.0575189
-0.0605393
-0.0634702
-0.0663072
-0.0690453
-0.0716721
-0.0741625
-0.0764778
-0.0785699
-0.0803978
-0.0819613
-0.083324
-0.0844227
-0.0843621
-0.0822246
-0.0191608
-0.018153
-0.0188846
-0.0207719
-0.0230086
-0.0254684
-0.0281818
-0.0311376
-0.0342921
-0.0375956
-0.0410005
-0.0444626
-0.0479406
-0.0513968
-0.0547979
-0.0581182
-0.0613416
-0.0644633
-0.0674888
-0.0704297
-0.0732956
-0.0760856
-0.0787792
-0.0813325
-0.0836886
-0.0858094
-0.0877051
-0.0892438
-0.0894093
-0.0873369
-0.0150344
-0.0137805
-0.0146051
-0.0168614
-0.0195606
-0.0225123
-0.0257169
-0.0291437
-0.0327386
-0.0364503
-0.0402349
-0.0440533
-0.0478685
-0.0516447
-0.0553489
-0.0589543
-0.062445
-0.0658198
-0.0690934
-0.0722944
-0.0754574
-0.0786108
-0.0817611
-0.0848783
-0.0878928
-0.0907173
-0.0932702
-0.0952817
-0.0955599
-0.093265
-0.00848216
-0.00738293
-0.00874788
-0.0117142
-0.015161
-0.0188295
-0.0226999
-0.0267378
-0.0308936
-0.0351243
-0.0393957
-0.0436769
-0.0479365
-0.0521417
-0.0562611
-0.060269
-0.0641511
-0.0679097
-0.0715666
-0.0751627
-0.0787514
-0.082386
-0.0861003
-0.0898879
-0.0936885
-0.0973999
-0.100874
-0.103699
-0.104714
-0.102671
0.000768305
0.000691666
-0.00204965
-0.00610431
-0.0104962
-0.0149743
-0.0195488
-0.0242218
-0.0289672
-0.0337585
-0.0385714
-0.0433799
-0.0481543
-0.0528625
-0.0574736
-0.0619625
-0.0663149
-0.070532
-0.0746353
-0.0786604
-0.0826576
-0.0866819
-0.0907789
-0.094968
-0.0992334
-0.103552
-0.107846
-0.111754
-0.114841
-0.114738
0.00716336
0.00580236
0.0019784
-0.00270384
-0.00753227
-0.0123537
-0.0172387
-0.0222309
-0.0273222
-0.0324886
-0.0376976
-0.0429092
-0.0480774
-0.0531543
-0.0580936
-0.0628544
-0.0674009
-0.0717079
-0.0758009
-0.0796565
-0.0832844
-0.0867103
-0.0899662
-0.0930904
-0.0961331
-0.0992057
-0.102415
-0.10565
-0.109184
-0.110383
0.0100834
0.00850211
0.00472438
9.60091e-05
-0.00470792
-0.00960733
-0.0146651
-0.0198911
-0.0252569
-0.0307187
-0.0362226
-0.0417062
-0.0471008
-0.0523346
-0.0573351
-0.0620324
-0.0663649
-0.0702767
-0.0736739
-0.0765548
-0.0789072
-0.0807329
-0.0820624
-0.0829548
-0.0834982
-0.0838267
-0.0841088
-0.0843237
-0.0841711
-0.0825904
-0.0556178
-0.0542639
-0.0523661
-0.0507282
-0.0492439
-0.0478138
-0.0464192
-0.0450557
-0.0437146
-0.0423847
-0.0410533
-0.0397063
-0.0383284
-0.036903
-0.0354124
-0.0338378
-0.0321578
-0.030346
-0.0283678
-0.0261756
-0.0237049
-0.0208757
-0.0176125
-0.0138839
-0.00965492
-0.00444336
0.00323145
0.0134306
0.0190221
0.0162815
-0.0510408
-0.0496794
-0.0482241
-0.0469275
-0.0457003
-0.0444889
-0.0432827
-0.0420763
-0.0408617
-0.039631
-0.0383765
-0.0370908
-0.0357663
-0.0343944
-0.0329653
-0.0314661
-0.0298787
-0.0281767
-0.0263211
-0.0242564
-0.0219075
-0.0191821
-0.0159895
-0.0122741
-0.00795468
-0.00247973
0.00567952
0.0164746
0.0223984
0.0194513
-0.0479861
-0.0467438
-0.0455214
-0.0443815
-0.04325
-0.0421057
-0.0409486
-0.0397761
-0.0385824
-0.0373611
-0.0361055
-0.0348087
-0.0334631
-0.0320602
-0.0305899
-0.0290385
-0.0273867
-0.0256059
-0.0236547
-0.021475
-0.0189882
-0.0160968
-0.0127026
-0.00874389
-0.00413547
0.00171365
0.0104648
0.0220205
0.0278982
0.0233253
-0.0452086
-0.0440818
-0.042975
-0.0419194
-0.0408577
-0.0397737
-0.0386658
-0.0375294
-0.0363582
-0.0351452
-0.0338835
-0.0325656
-0.0311833
-0.0297271
-0.0281855
-0.0265432
-0.0247786
-0.0228608
-0.0207463
-0.0183757
-0.015669
-0.0125262
-0.0088469
-0.0045763
0.000353227
0.00658896
0.0160888
0.0288101
0.0344831
0.0266987
-0.0425871
-0.0415669
-0.04056
-0.0395836
-0.0385876
-0.0375568
-0.036488
-0.0353762
-0.0342153
-0.0329986
-0.031719
-0.0303689
-0.0289395
-0.0274207
-0.0258
-0.0240606
-0.0221792
-0.0201235
-0.0178495
-0.0152982
-0.0123902
-0.00902586
-0.0051076
-0.000594512
0.004561
0.0111
0.0214089
0.0355761
0.0409629
0.0288261
-0.040163
-0.0392421
-0.0383247
-0.0374169
-0.0364738
-0.0354822
-0.0344389
-0.0333395
-0.0321779
-0.0309475
-0.0296411
-0.0282509
-0.0267678
-0.0251813
-0.023478
-0.0216403
-0.019644
-0.0174568
-0.0150357
-0.012324
-0.00924594
-0.00570598
-0.00161405
0.00304932
0.0083075
0.0150335
0.0261967
0.0421341
0.0471971
0.0295034
-0.0379545
-0.037124
-0.0362846
-0.0354337
-0.034532
-0.0335687
-0.0325411
-0.0314449
-0.0302744
-0.0290231
-0.027684
-0.0262488
-0.0247086
-0.0230522
-0.0212658
-0.0193313
-0.0172243
-0.014913
-0.0123566
-0.00950214
-0.00627904
-0.00259854
0.00161717
0.00635657
0.0116062
0.018397
0.0304486
0.0485145
0.0532537
0.0286959
-0.0359772
-0.035228
-0.0344555
-0.0336509
-0.0327809
-0.0318371
-0.0308172
-0.0297175
-0.0285324
-0.0272558
-0.0258806
-0.0243988
-0.0228012
-0.0210764
-0.0192104
-0.0171846
-0.0149747
-0.0125502
-0.00987259
-0.00689288
-0.00354609
0.000248992
0.00455456
0.00931622
0.0144595
0.0211811
0.0341248
0.0546901
0.0591703
0.0264433
-0.0342475
-0.03357
-0.0328536
-0.0320855
-0.0312387
-0.0303072
-0.0292892
-0.0281811
-0.026978
-0.025674
-0.0242624
-0.0227352
-0.0210831
-0.0192949
-0.0173559
-0.0152476
-0.0129464
-0.0104226
-0.00764017
-0.00455335
-0.00110181
0.0027892
0.00716482
0.0119151
0.0168703
0.0233786
0.0371749
0.0605939
0.0649572
0.0228871
-0.0327774
-0.0321617
-0.031491
-0.0307506
-0.02992
-0.0289952
-0.0279749
-0.0268559
-0.0256336
-0.0243026
-0.0228564
-0.0212875
-0.0195865
-0.017742
-0.0157394
-0.0135602
-0.0111813
-0.00857416
-0.00570434
-0.00252852
0.00101084
0.00498457
0.00942207
0.0141474
0.0188561
0.0250107
0.0395764
0.0661428
0.0705957
0.0182949
-0.0315727
-0.0310085
-0.0303736
-0.0296535
-0.0288336
-0.0279117
-0.0268867
-0.0257559
-0.0245152
-0.0231596
-0.021683
-0.0200779
-0.0183352
-0.0164434
-0.0143881
-0.0121509
-0.00970908
-0.00703507
-0.00409538
-0.000848129
0.00276334
0.00680944
0.0113077
0.0160108
0.0204437
0.026129
0.0413471
0.0712414
0.0760181
0.0130674
-0.0306321
-0.0301089
-0.0295009
-0.028795
-0.0279817
-0.0270602
-0.0260298
-0.0248881
-0.0236314
-0.0222551
-0.0207535
-0.0191192
-0.0173432
-0.0154142
-0.0133177
-0.0110358
-0.00854589
-0.00582084
-0.00282792
0.000474132
0.00414264
0.00825089
0.01281
0.0175033
0.0216617
0.0268092
0.0425461
0.0757722
0.0810823
0.00773253
-0.0299468
-0.029454
-0.028865
-0.0281686
-0.0273594
-0.0264374
-0.0254021
-0.0242516
-0.0229826
-0.0215906
-0.0200702
-0.0184143
-0.016614
-0.0146581
-0.0125321
-0.0102181
-0.00769379
-0.00493226
-0.0019012
0.00144049
0.00515163
0.00931056
0.0139274
0.0186243
0.0225361
0.0271415
0.043268
0.0796001
0.08557
0.00288306
-0.0295014
-0.029029
-0.0284523
-0.027762
-0.0269552
-0.0260328
-0.0249944
-0.0238381
-0.022561
-0.0211588
-0.0196264
-0.0179566
-0.0161408
-0.0141678
-0.0120231
-0.00968869
-0.00714229
-0.00435709
-0.001301
0.00206706
0.00580761
0.0100045
0.0146703
0.0193798
0.0230961
0.0272291
0.0436203
0.0825317
0.0891737
-0.000901401
-0.0292756
-0.0288141
-0.0282443
-0.0275576
-0.0267527
-0.0258307
-0.0247913
-0.0236327
-0.0223521
-0.0209454
-0.0194074
-0.0177314
-0.0159085
-0.0139276
-0.0117739
-0.00942945
-0.00687173
-0.00407396
-0.00100409
0.00237905
0.00613706
0.0103575
0.0150559
0.0197812
0.0233902
0.0272277
0.0437217
0.0841521
0.0913092
-0.00295877
-0.0292449
-0.0287855
-0.0282179
-0.0275332
-0.0267302
-0.0258098
-0.0247718
-0.0236146
-0.0223351
-0.0209294
-0.0193923
-0.0177172
-0.015895
-0.0139145
-0.0117609
-0.00941578
-0.00685652
-0.00405616
-0.000982528
0.00240573
0.00617042
0.0103991
0.0151063
0.0198378
0.0234465
0.0272768
0.0437624
0.0842007
0.0913787
-0.00293948
-0.0294083
-0.0289425
-0.0283725
-0.0276882
-0.026887
-0.0259695
-0.0249356
-0.0237832
-0.0225096
-0.0211106
-0.0195809
-0.0179139
-0.0161004
-0.0141288
-0.0119843
-0.00964796
-0.00709707
-0.00430429
-0.00123711
0.0021461
0.00590638
0.0101274
0.0148186
0.0195458
0.0232612
0.0273746
0.0437438
0.0826787
0.0893764
-0.000844354
-0.0297898
-0.0293082
-0.0287305
-0.0280444
-0.0272445
-0.026331
-0.0253034
-0.0241596
-0.0228966
-0.0215101
-0.0199948
-0.0183436
-0.0165473
-0.014594
-0.0124684
-0.0101517
-0.00762032
-0.0048467
-0.0017977
0.00156857
0.00531159
0.00950886
0.014165
0.0188886
0.0228001
0.0273807
0.0434807
0.0798504
0.085893
0.00297692
-0.0304104
-0.0299031
-0.029311
-0.0286199
-0.02782
-0.0269106
-0.0258911
-0.0247592
-0.0235114
-0.0221433
-0.0206492
-0.0190219
-0.0172519
-0.015327
-0.0132316
-0.0109463
-0.00844738
-0.00570637
-0.00268947
0.000645684
0.00435684
0.00851528
0.0131242
0.0178512
0.0220137
0.0271432
0.0428629
0.0761378
0.0815157
0.00786558
-0.031286
-0.0307423
-0.0301282
-0.0294273
-0.0286249
-0.0277189
-0.0267083
-0.0255906
-0.024362
-0.0230176
-0.0215515
-0.0199561
-0.0182218
-0.0163359
-0.0142826
-0.012042
-0.00958982
-0.00689689
-0.0039283
-0.000640948
0.00302184
0.00712708
0.0116826
0.0164259
0.0208741
0.0265635
0.0417895
0.0717398
0.0765581
0.0132472
-0.0324261
-0.0318353
-0.0311899
-0.030473
-0.0296641
-0.0287591
-0.0277569
-0.0266545
-0.0254477
-0.0241313
-0.022699
-0.0211428
-0.019453
-0.0176167
-0.0156176
-0.0134356
-0.0110459
-0.00841819
-0.0055164
-0.00229589
0.00130039
0.0053388
0.00983868
0.0146123
0.0193566
0.025553
0.0401657
0.0667913
0.0712426
0.0185339
-0.033833
-0.0331844
-0.0324974
-0.0317568
-0.0309354
-0.0300273
-0.0290311
-0.0279432
-0.0267591
-0.0254732
-0.0240787
-0.0225677
-0.02093
-0.0191527
-0.0172196
-0.01511
-0.0127987
-0.0102546
-0.00743977
-0.00430712
-0.000797107
0.00316035
0.00760201
0.0124125
0.0174333
0.0240344
0.0379263
0.0614044
0.0657142
0.0232029
-0.0355024
-0.0347853
-0.0340455
-0.0332717
-0.0324303
-0.0315131
-0.0305181
-0.0294418
-0.0282788
-0.0270234
-0.0256687
-0.0242064
-0.0226263
-0.0209156
-0.0190583
-0.0170339
-0.0148168
-0.0123747
-0.00966764
-0.00664523
-0.00324316
0.000616249
0.00499065
0.00982845
0.0150761
0.0219504
0.0350426
0.0556659
0.0600416
0.0268586
-0.037424
-0.036628
-0.0358237
-0.0350058
-0.034135
-0.0332004
-0.0322
-0.0311295
-0.0299836
-0.0287561
-0.0274399
-0.0260269
-0.024507
-0.0228678
-0.0210937
-0.0191648
-0.0170554
-0.0147323
-0.0121531
-0.00926372
-0.00599349
-0.00225472
0.00203166
0.00686629
0.0122642
0.0192703
0.0315228
0.0496478
0.0542434
0.0292378
-0.0395839
-0.0386987
-0.0378177
-0.0369438
-0.0360324
-0.0350705
-0.0340555
-0.0329829
-0.0318472
-0.0306419
-0.0293601
-0.0279937
-0.026533
-0.0249665
-0.0232793
-0.0214525
-0.0194606
-0.0172699
-0.0148364
-0.0121019
-0.00898958
-0.00540136
-0.00123893
0.00353874
0.008989
0.0159895
0.0274021
0.0434066
0.0483083
0.0302032
-0.0419687
-0.0409843
-0.0400136
-0.0390707
-0.0381059
-0.0371043
-0.0360633
-0.0349782
-0.0338431
-0.0326516
-0.0313967
-0.0300708
-0.0286649
-0.0271684
-0.0255676
-0.0238447
-0.0219755
-0.0199266
-0.0176532
-0.0150946
-0.012169
-0.00877032
-0.0047855
-0.000143557
0.00524075
0.0121042
0.0227053
0.0369593
0.0421976
0.0297177
-0.0445627
-0.0434702
-0.0423979
-0.041374
-0.0403416
-0.0392852
-0.0382034
-0.0370922
-0.0359452
-0.0347559
-0.0335175
-0.0322229
-0.030864
-0.0294313
-0.0279128
-0.0262926
-0.0245482
-0.0226481
-0.0205483
-0.0181878
-0.0154828
-0.012323
-0.00858657
-0.00418181
0.000999191
0.00759378
0.0174232
0.0302686
0.0358444
0.0278217
-0.047327
-0.0461162
-0.0449251
-0.0438138
-0.0427088
-0.0415892
-0.0404553
-0.0393049
-0.0381323
-0.0369316
-0.0356965
-0.0344207
-0.0330972
-0.0317179
-0.0302729
-0.0287483
-0.0271243
-0.0253718
-0.0234491
-0.0212969
-0.0188315
-0.0159428
-0.0125068
-0.0084208
-0.00355793
0.00266333
0.0117757
0.0235178
0.0293951
0.024722
-0.0503874
-0.0490523
-0.0476242
-0.0463527
-0.0451481
-0.0439571
-0.0427695
-0.0415802
-0.0403818
-0.0391668
-0.0379284
-0.0366599
-0.0353547
-0.0340052
-0.0326022
-0.031133
-0.0295792
-0.0279141
-0.0260984
-0.0240755
-0.0217651
-0.0190613
-0.015847
-0.0120262
-0.00747714
-0.00164783
0.00689473
0.0179634
0.0240226
0.0211346
-0.0549967
-0.0536638
-0.0517885
-0.050169
-0.0486998
-0.0472826
-0.0458992
-0.0445458
-0.0432142
-0.0418938
-0.0405726
-0.0392376
-0.0378743
-0.0364676
-0.035001
-0.0334562
-0.031812
-0.0300417
-0.0281101
-0.0259682
-0.0235466
-0.0207531
-0.017488
-0.0136845
-0.00926898
-0.00374082
0.00434739
0.0149504
0.0208563
0.0183605
0.0127253
0.0118006
0.00874018
0.00474153
0.000493437
-0.00392103
-0.00856925
-0.0134583
-0.0185539
-0.0238041
-0.0291454
-0.0345048
-0.0398038
-0.0449616
-0.0498984
-0.0545386
-0.0588173
-0.0626777
-0.066028
-0.0688734
-0.0712124
-0.0730614
-0.0744694
-0.0755162
-0.0763106
-0.0770061
-0.0777823
-0.0786323
-0.0792755
-0.0784609
0.00941342
0.00864741
0.00549945
0.00145273
-0.00279219
-0.00708573
-0.0115142
-0.0161232
-0.0209022
-0.0258212
-0.0308392
-0.035907
-0.0409702
-0.0459735
-0.0508649
-0.0555994
-0.0601383
-0.0644557
-0.0685775
-0.0724825
-0.0761856
-0.0797207
-0.0831309
-0.0864675
-0.0897945
-0.0932368
-0.0969081
-0.100702
-0.104917
-0.106747
0.00256168
0.00302801
0.000929832
-0.00250082
-0.00630701
-0.0102454
-0.0143384
-0.0185923
-0.0229825
-0.0274811
-0.0320597
-0.0366867
-0.0413265
-0.0459421
-0.0504987
-0.0549691
-0.0593387
-0.0636105
-0.0678087
-0.0719722
-0.0761542
-0.0804109
-0.0847867
-0.0892975
-0.0939218
-0.0986315
-0.103342
-0.107688
-0.111264
-0.111581
-0.00721163
-0.00562856
-0.00639628
-0.00876482
-0.0116301
-0.0147454
-0.0181031
-0.0216777
-0.0254267
-0.0293109
-0.0332969
-0.0373517
-0.0414401
-0.0455256
-0.0495738
-0.0535582
-0.057466
-0.0613043
-0.0651011
-0.0689046
-0.0727728
-0.0767578
-0.0808843
-0.0851268
-0.0893982
-0.0935659
-0.0974526
-0.100624
-0.10196
-0.10014
-0.014237
-0.0125891
-0.0128981
-0.0146042
-0.0167376
-0.0191268
-0.0217896
-0.0247101
-0.0278474
-0.0311593
-0.0346075
-0.0381545
-0.041762
-0.0453919
-0.0490091
-0.0525864
-0.0561102
-0.0595844
-0.0630313
-0.0664875
-0.0699923
-0.0735724
-0.077222
-0.0808861
-0.0844593
-0.0878113
-0.0908155
-0.0931607
-0.0936843
-0.0915091
-0.0186911
-0.0173875
-0.017703
-0.0191081
-0.0208182
-0.02273
-0.0248952
-0.0273225
-0.0299858
-0.0328499
-0.0358774
-0.0390301
-0.0422689
-0.045556
-0.0488577
-0.0521485
-0.0554143
-0.0586545
-0.0618798
-0.0651068
-0.0683465
-0.0715926
-0.0748105
-0.0779319
-0.0808653
-0.0835326
-0.0859017
-0.0877978
-0.0882142
-0.0862678
-0.0219764
-0.0209509
-0.0213053
-0.022538
-0.0239978
-0.0256119
-0.0274443
-0.0295201
-0.0318291
-0.0343472
-0.0370435
-0.0398831
-0.0428291
-0.0458459
-0.0489022
-0.0519738
-0.0550453
-0.0581097
-0.0611645
-0.064204
-0.0672114
-0.0701515
-0.0729692
-0.0755941
-0.0779585
-0.0800336
-0.0818539
-0.0833271
-0.0835504
-0.0815919
-0.0246374
-0.0238098
-0.0241566
-0.0252453
-0.0265302
-0.027947
-0.0295531
-0.0313771
-0.0334187
-0.0356642
-0.038091
-0.0406702
-0.0433693
-0.046156
-0.0490014
-0.0518817
-0.0547789
-0.0576785
-0.0605647
-0.0634129
-0.0661843
-0.068824
-0.071266
-0.0734439
-0.0753097
-0.0768644
-0.0781731
-0.0791838
-0.0790825
-0.0769521
-0.026818
-0.0261772
-0.0265037
-0.027463
-0.028609
-0.0298812
-0.0313234
-0.03296
-0.0347946
-0.0368204
-0.0390225
-0.0413785
-0.0438614
-0.0464426
-0.0490952
-0.0517948
-0.0545201
-0.057249
-0.059954
-0.0625964
-0.0651232
-0.0674691
-0.0695657
-0.0713534
-0.0727983
-0.0739159
-0.0747812
-0.0753639
-0.0749549
-0.0727118
-0.0286214
-0.0281738
-0.028488
-0.0293357
-0.0303647
-0.0315207
-0.0328341
-0.0343229
-0.0359909
-0.0378354
-0.0398467
-0.0420083
-0.0442983
-0.0466918
-0.0491632
-0.0516872
-0.0542384
-0.0567881
-0.0592996
-0.0617247
-0.064003
-0.0660665
-0.0678503
-0.069304
-0.0704042
-0.0711737
-0.0716888
-0.0719341
-0.0713122
-0.06909
-0.0301596
-0.0298981
-0.0302075
-0.0309602
-0.0318874
-0.0329428
-0.034147
-0.0355116
-0.0370398
-0.0387302
-0.0405766
-0.0425668
-0.044683
-0.0469032
-0.0492027
-0.0515549
-0.0539305
-0.0562951
-0.0586057
-0.0608085
-0.0628408
-0.0646373
-0.0661404
-0.06731
-0.0681326
-0.0686351
-0.0688915
-0.0688972
-0.0681593
-0.0660708
-0.0315299
-0.0314313
-0.0317366
-0.0324061
-0.0332418
-0.0342058
-0.0353114
-0.0365662
-0.0379719
-0.0395274
-0.0412285
-0.0430656
-0.0450238
-0.0470829
-0.0492186
-0.0514028
-0.0536031
-0.0557806
-0.0578882
-0.05987
-0.0616647
-0.0632127
-0.0644658
-0.0653945
-0.0659943
-0.0662951
-0.066366
-0.0662097
-0.0654256
-0.0635403
-0.0328037
-0.0328353
-0.0331317
-0.0337255
-0.0344765
-0.0353543
-0.0363675
-0.0375211
-0.0388155
-0.0402496
-0.0418196
-0.0435176
-0.0453301
-0.0472381
-0.0492172
-0.051238
-0.0532652
-0.0552571
-0.0571644
-0.0589316
-0.060501
-0.0618207
-0.0628524
-0.0635769
-0.063997
-0.0641443
-0.0640814
-0.0638151
-0.0630261
-0.0613758
-0.0340287
-0.0341547
-0.034435
-0.0349581
-0.035629
-0.0364238
-0.0373482
-0.0384055
-0.0395955
-0.0409168
-0.0423655
-0.0439343
-0.0456103
-0.0473749
-0.0492035
-0.0510655
-0.0529237
-0.0547344
-0.0564477
-0.0580099
-0.059369
-0.0604812
-0.0613176
-0.061868
-0.062141
-0.0621685
-0.0620058
-0.0616612
-0.0608875
-0.0594768
-0.0352353
-0.0354212
-0.0356779
-0.0361342
-0.0367284
-0.0374422
-0.0382796
-0.0392432
-0.0403327
-0.0415462
-0.0428796
-0.0443254
-0.045871
-0.0474978
-0.0491809
-0.0508885
-0.0525824
-0.0542178
-0.0557456
-0.057115
-0.0582798
-0.0592045
-0.0598687
-0.0602693
-0.0604192
-0.0603496
-0.0601085
-0.0597044
-0.0589531
-0.0577686
-0.0364421
-0.0366572
-0.0368836
-0.0372764
-0.037797
-0.0384311
-0.0391824
-0.0400536
-0.0410442
-0.0421522
-0.0433732
-0.0446994
-0.0461181
-0.0476107
-0.0491518
-0.050709
-0.0522434
-0.0537102
-0.0550616
-0.0562508
-0.0572374
-0.0579931
-0.0585048
-0.0587747
-0.0588189
-0.0586673
-0.0583614
-0.0579093
-0.057181
-0.0561967
-0.037659
-0.0378785
-0.0380694
-0.0384019
-0.0388514
-0.0394071
-0.0400729
-0.0408519
-0.0417441
-0.0427472
-0.0438568
-0.0450646
-0.046358
-0.0477181
-0.0491194
-0.0505292
-0.0519084
-0.0532129
-0.054397
-0.0554178
-0.0562407
-0.0568436
-0.0572191
-0.0573734
-0.0573245
-0.0571013
-0.0567395
-0.0562474
-0.0555395
-0.0547215
-0.0388908
-0.0390968
-0.0392484
-0.0395234
-0.0399044
-0.0403832
-0.0409642
-0.0416512
-0.0424447
-0.0433427
-0.0443405
-0.0454297
-0.0465976
-0.0478254
-0.0490876
-0.0503518
-0.0515791
-0.0527267
-0.0537513
-0.0546141
-0.0552857
-0.0557493
-0.0560018
-0.0560522
-0.0559199
-0.0556324
-0.0552217
-0.0546959
-0.0540042
-0.0533143
-0.0401389
-0.0403206
-0.0404306
-0.0406508
-0.0409661
-0.0413697
-0.041867
-0.0424626
-0.0431573
-0.0439495
-0.0448344
-0.0458038
-0.0468449
-0.0479391
-0.0490616
-0.0501805
-0.0512578
-0.0522521
-0.0531233
-0.0538364
-0.0543669
-0.0547022
-0.0548421
-0.0547979
-0.0545897
-0.0542442
-0.0537899
-0.0532357
-0.0525553
-0.0519537
-0.041403
-0.0415567
-0.0416241
-0.0417924
-0.0420447
-0.0423755
-0.0427909
-0.0432958
-0.0438918
-0.0445774
-0.045348
-0.0461957
-0.0471079
-0.0480667
-0.0490479
-0.0500202
-0.0509471
-0.0517901
-0.0525121
-0.0530823
-0.0534796
-0.0536944
-0.0537294
-0.0535977
-0.0533198
-0.0529213
-0.0524284
-0.0518501
-0.0511757
-0.0506247
-0.0426824
-0.0428107
-0.0428359
-0.0429549
-0.0431476
-0.0434084
-0.043744
-0.0441598
-0.0446574
-0.0452357
-0.0458905
-0.0466141
-0.0473945
-0.0482147
-0.0490508
-0.0498734
-0.0506488
-0.0513411
-0.0519165
-0.0523477
-0.0526165
-0.0527165
-0.0526527
-0.0524393
-0.0520969
-0.05165
-0.0511225
-0.0505239
-0.0498509
-0.0493179
-0.043977
-0.0440871
-0.0440718
-0.0441444
-0.044281
-0.0444751
-0.0447338
-0.0450622
-0.0454622
-0.0459328
-0.04647
-0.0470667
-0.0477114
-0.048388
-0.0490746
-0.0497441
-0.050365
-0.0509047
-0.0513333
-0.0516265
-0.0517697
-0.0517591
-0.0516012
-0.0513109
-0.0509084
-0.050417
-0.049859
-0.0492434
-0.0485682
-0.0480289
-0.0452877
-0.0453897
-0.0453368
-0.0453659
-0.0454503
-0.0455817
-0.0457668
-0.0460104
-0.046314
-0.0466767
-0.0470947
-0.0475612
-0.0480659
-0.0485938
-0.0491251
-0.0496354
-0.0500966
-0.0504796
-0.050759
-0.0509135
-0.0509321
-0.0508131
-0.0505642
-0.0502007
-0.0497421
-0.0492103
-0.0486257
-0.0479971
-0.0473178
-0.046758
-0.0466191
-0.0467227
-0.0466355
-0.046624
-0.0466602
-0.0467334
-0.0468489
-0.0470108
-0.04722
-0.047475
-0.0477722
-0.0481051
-0.0484644
-0.0488369
-0.0492054
-0.0495488
-0.0498432
-0.0500641
-0.0501889
-0.0502021
-0.0500952
-0.0498686
-0.0495309
-0.0490972
-0.0485864
-0.0480185
-0.0474121
-0.046775
-0.0460921
-0.0455088
-0.0479789
-0.0480904
-0.0479729
-0.0479234
-0.0479149
-0.0479343
-0.0479849
-0.0480691
-0.0481864
-0.0483345
-0.0485094
-0.0487048
-0.0489127
-0.0491218
-0.0493183
-0.0494851
-0.0496032
-0.0496531
-0.0496178
-0.0494854
-0.0492508
-0.0489163
-0.0484914
-0.0479906
-0.0474317
-0.0468325
-0.0462098
-0.0455695
-0.0448867