/*--------------------------------*- C++ -*----------------------------------*\
  =========                 |
  \\      /  F ield         | OpenFOAM: The Open Source CFD Toolbox
   \\    /   O peration     | Website:  https://openfoam.org
    \\  /    A nd           | Version:  12
     \\/     M anipulation  |
\*---------------------------------------------------------------------------*/
FoamFile
{
    format      ascii;
    class       surfaceScalarField;
    location    "20";
    object      phi;
}
// * * * * * * * * * * * * * * * * * * * * * * * * * * * * * * * * * * * * * //

dimensions      [0 3 -1 0 0 0 0];

internalField   nonuniform List<scalar> 
13275
(
0.369259
-0.00465082
0.37006
-0.0106077
0.37074
-0.0134468
0.371229
-0.0144654
-0.0144507
0.371532
0.351169
-0.00499457
0.351729
-0.011168
0.352246
-0.0139636
0.352601
-0.0148198
-0.0145592
0.352709
0.334034
-0.00515026
0.33426
-0.0113932
0.334417
-0.0141207
0.334452
-0.0148554
-0.014472
0.334365
0.317742
-0.00514173
0.317658
-0.0113089
0.317488
-0.0139507
0.317247
-0.0146143
-0.0141871
0.316962
0.302259
-0.00499845
0.301911
-0.0109613
0.301454
-0.0134936
0.300953
-0.0141134
-0.0136878
0.300454
0.287541
-0.0047446
0.286967
-0.0103877
0.286252
-0.0127786
0.285502
-0.0133635
-0.0129648
0.284779
0.273545
-0.00439738
0.272775
-0.00961754
0.271828
-0.0118311
0.270843
-0.0123793
-0.0120213
0.2699
0.260236
-0.00397092
0.259296
-0.0086781
0.258144
-0.0106787
0.256948
-0.011183
-0.0108724
0.255799
0.247579
-0.00347918
0.2465
-0.00759859
0.245175
-0.00935444
0.243798
-0.00980525
-0.00954452
0.24247
0.235546
-0.00293704
0.234358
-0.00641103
0.2329
-0.00789629
0.231379
-0.0082842
-0.00807296
0.229907
0.224107
-0.0023601
0.222845
-0.00514932
0.221294
-0.00634556
0.219673
-0.00666255
-0.00649885
0.218099
0.213234
-0.00176402
0.211932
-0.00384732
0.210331
-0.00474405
0.208653
-0.00498429
-0.00486537
0.207019
0.202901
-0.00116379
0.201591
-0.00253686
0.199978
-0.0031313
0.198285
-0.00329133
-0.00321425
0.196634
0.19308
-0.000572999
0.19179
-0.00124645
0.190201
-0.00154213
0.18853
-0.00162069
-0.00158283
0.186899
0.183746
-2.51138e-06
0.182502
-2.83484e-06
0.180963
-2.80137e-06
0.179345
-2.61983e-06
-2.38572e-06
0.177764
0.183746
0.000567994
0.182502
0.00124079
0.180963
0.00153654
0.179344
0.00161546
0.00157806
0.177764
0.19308
0.00115885
0.19179
0.00253124
0.190201
0.00312575
0.18853
0.00328613
0.00320951
0.186899
0.202901
0.00175917
0.201591
0.00384177
0.199978
0.00473855
0.198285
0.00497914
0.00486066
0.196634
0.213234
0.00235539
0.211932
0.00514388
0.21033
0.00634016
0.208652
0.00665748
0.00649419
0.207019
0.224107
0.00293252
0.222845
0.00640576
0.221294
0.00789103
0.219672
0.00827923
0.00806839
0.218098
0.235546
0.00347489
0.234358
0.00759352
0.232899
0.00934935
0.231378
0.00980041
0.00954007
0.229907
0.247579
0.00396692
0.246499
0.00867328
0.245175
0.0106738
0.243797
0.0111783
0.0108681
0.242469
0.260235
0.00439373
0.259296
0.00961302
0.258143
0.0118264
0.256947
0.0123749
0.0120171
0.255797
0.273545
0.00474134
0.272774
0.0103836
0.271827
0.0127743
0.270842
0.0133593
0.0129609
0.269898
0.28754
0.00499563
0.286966
0.0109575
0.286251
0.0134897
0.285501
0.0141095
0.0136841
0.284777
0.302258
0.00513938
0.30191
0.0113056
0.301453
0.0139471
0.300951
0.0146107
0.0141836
0.300452
0.317742
0.0051484
0.317657
0.0113903
0.317487
0.0141175
0.317245
0.0148521
0.0144688
0.31696
0.334034
0.00499316
0.334259
0.0111656
0.334415
0.0139608
0.334451
0.0148169
0.0145563
0.334363
0.351169
0.00464984
0.351729
0.0106057
0.352245
0.0134444
0.352599
0.0144628
0.0144481
0.352707
0.369259
0.370059
0.370739
0.371228
0.371531
0.190714
-0.0363948
-0.191221
0.189955
-0.0401232
0.18886
-0.0430669
0.187459
-0.0454312
0.18581
-0.0472428
0.183972
-0.0484952
0.181992
-0.0491456
0.179915
-0.049108
0.177785
-0.0482649
0.175657
-0.0464871
0.1736
-0.043659
0.171694
-0.0397055
0.170031
-0.0346169
0.168701
-0.0284682
0.167785
-0.0214269
0.167342
-0.0137462
0.167398
-0.00574302
0.167945
0.00223501
0.168939
0.00984764
0.17031
0.0167969
0.17197
0.0228527
0.173824
0.0278678
0.175782
0.031778
0.177764
0.0345926
0.179706
0.0363772
0.181557
0.0372329
0.183285
0.0372788
0.184876
0.0366428
0.186354
0.0354599
0.0337988
0.187795
0.187653
-0.0359537
-0.188094
0.186732
-0.0392023
0.185443
-0.0417783
0.183886
-0.0438736
0.182127
-0.0454841
0.180221
-0.0465891
0.178209
-0.0471335
0.176127
-0.0470265
0.174016
-0.046154
0.171927
-0.0443971
0.16992
-0.041653
0.168073
-0.0378585
0.166468
-0.0330115
0.165187
-0.0271872
0.164303
-0.020543
0.163869
-0.0133123
0.163911
-0.00578426
0.164421
0.00172459
0.165363
0.00890589
0.166674
0.0154857
0.168275
0.0212517
0.170079
0.0260638
0.172001
0.0298563
0.173963
0.0326301
0.175902
0.0344385
0.177764
0.0353702
0.179511
0.0355318
0.181117
0.0350371
0.182562
0.0340151
0.0325247
0.183836
0.184182
-0.0352725
-0.184863
0.183087
-0.0381071
0.181695
-0.0403865
0.180087
-0.042265
0.178319
-0.0437168
0.176437
-0.0447064
0.174473
-0.0451696
0.17246
-0.0450133
0.170434
-0.0441282
0.168441
-0.0424044
0.166539
-0.0397505
0.164794
-0.0361138
0.163281
-0.0314988
0.162074
-0.0259804
0.161239
-0.0197074
0.160822
-0.0128957
0.160848
-0.00581026
0.161312
0.00126086
0.162182
0.00803591
0.163403
0.014265
0.164903
0.0197516
0.166603
0.0243636
0.168424
0.0280348
0.170295
0.0307593
0.172154
0.03258
0.173951
0.0335733
0.175648
0.0338344
0.177219
0.0334666
0.178644
0.0325901
0.0312669
0.179901
0.180624
-0.034375
-0.181522
0.179395
-0.0368774
0.177936
-0.0389277
0.176308
-0.0406376
0.17456
-0.0419682
0.172726
-0.0428725
0.170836
-0.0432795
0.168918
-0.0430952
0.167004
-0.0422146
0.165136
-0.040536
0.163363
-0.0379773
0.161744
-0.0344948
0.160343
-0.0300984
0.159225
-0.0248626
0.158447
-0.0189289
0.15805
-0.0124986
0.158056
-0.0058161
0.158462
0.00085455
0.159243
0.00725508
0.160351
0.0131566
0.161726
0.0183773
0.163296
0.022793
0.164992
0.0263388
0.166747
0.0290039
0.168505
0.0308224
0.170218
0.0318606
0.171849
0.0322035
0.173371
0.0319442
0.174768
0.0311927
0.0300178
0.176017
0.177036
-0.0333151
-0.178096
0.175716
-0.0355575
0.174221
-0.037433
0.172601
-0.039017
0.170892
-0.0402599
0.169126
-0.0411061
0.167326
-0.0414791
0.165516
-0.0412851
0.163724
-0.0404231
0.161986
-0.0387983
0.160346
-0.0363369
0.158854
-0.0330026
0.157565
-0.0288097
0.156535
-0.0238326
0.155813
-0.0182068
0.155435
-0.0121212
0.155422
-0.00580288
0.155773
0.000504156
0.156466
0.00656204
0.157462
0.01216
0.158709
0.01713
0.160147
0.0213555
0.161712
0.0247735
0.163346
0.0273704
0.164995
0.0291736
0.166614
0.0302407
0.16817
0.030648
0.169634
0.0304805
0.170988
0.0298383
0.0287889
0.172217
0.173437
-0.0321403
-0.174611
0.172065
-0.0341855
0.170565
-0.035933
0.168975
-0.0374273
0.167326
-0.0386108
0.16564
-0.0394206
0.163938
-0.0397768
0.162239
-0.0395862
0.160568
-0.0387518
0.158954
-0.037185
0.157437
-0.0348195
0.15606
-0.0316252
0.154871
-0.0276208
0.153919
-0.0228804
0.153246
-0.0175343
0.152886
-0.0117611
0.152856
-0.00577328
0.153158
0.000202774
0.153773
0.00594663
0.15467
0.0112637
0.155802
0.015998
0.157117
0.0200406
0.158559
0.0233311
0.160075
0.025854
0.161617
0.0276316
0.163144
0.0287144
0.16462
0.0291712
0.166021
0.0290801
0.167326
0.0285329
0.0275903
0.168525
0.169847
-0.0308931
-0.171094
0.168457
-0.032795
0.166977
-0.0344535
0.165437
-0.0358872
0.163859
-0.0370326
0.16226
-0.0378216
0.160655
-0.0381721
0.159061
-0.0379923
0.157499
-0.0371895
0.155995
-0.0356809
0.154582
-0.033407
0.153301
-0.0303439
0.152194
-0.0265138
0.151304
-0.021991
0.150671
-0.0169013
0.150324
-0.0114142
0.15028
-0.00572933
0.150541
-5.7491e-05
0.151091
0.00539593
0.151904
0.0104513
0.152938
0.0149634
0.154148
0.0188306
0.155484
0.0219952
0.156898
0.0244408
0.158344
0.0261855
0.159784
0.0272739
0.161187
0.0277681
0.162527
0.0277403
0.163784
0.0272756
0.0264256
0.164949
0.166288
-0.0296112
-0.16757
0.164907
-0.0314139
0.163467
-0.033013
0.161987
-0.0344072
0.160483
-0.0355287
0.158967
-0.0363058
0.157451
-0.036656
0.155948
-0.0364895
0.154477
-0.0357178
0.15306
-0.0342645
0.151729
-0.0320764
0.150521
-0.0291354
0.149475
-0.0254674
0.14863
-0.0211468
0.148024
-0.0162954
0.147685
-0.0110744
0.147627
-0.0056715
0.147853
-0.00028416
0.148352
0.00489731
0.149098
0.00970557
0.150055
0.0140062
0.151182
0.0177041
0.152432
0.0207446
0.153762
0.0231108
0.15513
0.0248175
0.1565
0.025904
0.157842
0.0264265
0.15913
0.0264518
0.160347
0.0260591
0.0252923
0.16148
0.162775
-0.0283254
-0.164061
0.161423
-0.0300615
0.160032
-0.0316218
0.158614
-0.0329895
0.15718
-0.0340944
0.155737
-0.0348629
0.154294
-0.035213
0.152862
-0.0350577
0.151458
-0.0343136
0.150104
-0.0329104
0.148829
-0.0308017
0.147669
-0.0279749
0.14666
-0.0244593
0.145843
-0.0203295
0.145251
-0.0157033
0.144911
-0.0107343
0.144839
-0.00559914
0.145037
-0.00048234
0.145495
0.00443933
0.14619
0.00901055
0.147089
0.0131067
0.148154
0.0166392
0.149342
0.0195565
0.150612
0.0218413
0.151924
0.0235058
0.153243
0.0245846
0.154541
0.0251285
0.155794
0.0251989
0.156983
0.02487
0.0241812
0.158094
0.159313
-0.0270571
-0.160582
0.158
-0.0287485
0.15666
-0.0302816
0.155299
-0.0316285
0.153923
-0.0327181
0.152536
-0.0334762
0.151145
-0.0338223
0.149761
-0.0336731
0.148398
-0.0329509
0.14708
-0.0315919
0.145834
-0.0295564
0.144697
-0.0268373
0.143705
-0.0234673
0.142896
-0.0195209
0.142305
-0.0151118
0.141956
-0.0103862
0.141868
-0.00551017
0.142041
-0.0006558
0.142467
0.00401303
0.143125
0.00835258
0.143984
0.0122476
0.145008
0.0156158
0.146155
0.0184089
0.147387
0.0206097
0.148665
0.0222277
0.149956
0.0232938
0.151231
0.0238533
0.152468
0.0239625
0.153647
0.0236907
0.023078
0.15475
0.155899
-0.025818
-0.157138
0.154626
-0.0274761
0.153331
-0.028986
0.152014
-0.0303119
0.150678
-0.0313825
0.149326
-0.0321243
0.147964
-0.0324596
0.1466
-0.0323097
0.145252
-0.0316028
0.143942
-0.0302822
0.142701
-0.0283148
0.141563
-0.0256991
0.140566
-0.0224708
0.139749
-0.0187038
0.139145
-0.0145082
0.138782
-0.0100224
0.138673
-0.0054019
0.138824
-0.000806556
0.139225
0.00361197
0.139857
0.00772107
0.14069
0.0114147
0.141688
0.0146171
0.142814
0.0172829
0.144029
0.0193954
0.145294
0.0209621
0.146578
0.02201
0.147852
0.0225796
0.149092
0.0227219
0.150282
0.0225014
0.0219647
0.151395
0.152515
-0.0246104
-0.153722
0.151276
-0.0262375
0.150012
-0.0277222
0.148722
-0.0290218
0.147406
-0.030066
0.146065
-0.0307832
0.144704
-0.0310992
0.143335
-0.0309408
0.141976
-0.0302429
0.140649
-0.0289559
0.139388
-0.0270534
0.138228
-0.0245393
0.137209
-0.0214516
0.136369
-0.0178638
0.135742
-0.0138816
0.135355
-0.00963554
0.135224
-0.00527069
0.135353
-0.000934998
0.135733
0.00323199
0.136345
0.00710869
0.137162
0.010598
0.138148
0.0136303
0.139268
0.0161637
0.140481
0.0181819
0.141752
0.019691
0.143048
0.0207143
0.144339
0.0212879
0.145604
0.0214574
0.146823
0.0212827
0.0208217
0.147966
0.149135
-0.0234276
-0.150318
0.147917
-0.0250193
0.146667
-0.026472
0.145381
-0.0277366
0.14406
-0.0287446
0.142704
-0.0294274
0.14132
-0.0297154
0.139921
-0.0295413
0.138525
-0.0288472
0.13716
-0.0275906
0.135859
-0.025752
0.134659
-0.0233398
0.133602
-0.0203946
0.132727
-0.0169885
0.132068
-0.0132225
0.131651
-0.00921923
0.131494
-0.00511314
0.131599
-0.00104045
0.13196
0.00287126
0.132558
0.00651119
0.133365
0.00979092
0.134348
0.012647
0.135471
0.015041
0.136695
0.0169575
0.137985
0.0184012
0.139307
0.0193924
0.140632
0.0199628
0.141937
0.0201527
0.143202
0.0200175
0.0196308
0.144393
0.145721
-0.0222563
-0.146892
0.144505
-0.023803
0.143246
-0.0252137
0.141943
-0.0264327
0.140592
-0.0273938
0.139197
-0.0280324
0.137765
-0.0282841
0.136313
-0.0280885
0.13486
-0.0273947
0.133437
-0.0261676
0.132079
-0.024394
0.130826
-0.0220868
0.12972
-0.0192881
0.1288
-0.0160686
0.128101
-0.0125239
0.12765
-0.00876844
0.127463
-0.00492614
0.127544
-0.00112149
0.127886
0.00252958
0.12847
0.00592682
0.129271
0.00899035
0.130255
0.0116628
0.131387
0.0139093
0.132629
0.0157154
0.133945
0.0170848
0.135302
0.0180351
0.136671
0.0185939
0.138028
0.0187965
0.139351
0.0186937
0.0183774
0.140605
0.142225
-0.021078
-0.143403
0.140989
-0.0225672
0.1397
-0.0239244
0.138353
-0.0250864
0.136949
-0.02599
0.135493
-0.0265755
0.133993
-0.0267845
0.132468
-0.0265633
0.130942
-0.0258686
0.129447
-0.0246724
0.12802
-0.0229674
0.126704
-0.0207703
0.12554
-0.0181244
0.124569
-0.0150979
0.123826
-0.0117811
0.123338
-0.00827976
0.123119
-0.00470727
0.123174
-0.00117656
0.123495
0.00220788
0.124066
0.00535601
0.12486
0.00819626
0.125846
0.0106773
0.126988
0.0127676
0.128249
0.0144542
0.129594
0.0157397
0.13099
0.0166394
0.132406
0.0171772
0.133819
0.0173837
0.135208
0.0173053
0.0170524
0.136533
0.138589
-0.0198717
-0.139795
0.137311
-0.0212898
0.135969
-0.0225816
0.134558
-0.0236757
0.13308
-0.0245126
0.131543
-0.0250379
0.129958
-0.0251997
0.128346
-0.0249516
0.126735
-0.0242572
0.125158
-0.0230957
0.123656
-0.0214648
0.12227
-0.0193849
0.121045
-0.0168993
0.120021
-0.0140737
0.119232
-0.0109921
0.118704
-0.0077516
0.118452
-0.00445515
0.118479
-0.00120423
0.118779
0.00190776
0.119335
0.00480068
0.12012
0.00741098
0.121104
0.00969306
0.122253
0.011619
0.12353
0.0131769
0.124901
0.0143688
0.126332
0.0152081
0.127795
0.015715
0.129262
0.0159159
0.130715
0.015853
0.015654
0.132113
0.134748
-0.0186164
-0.136003
0.133408
-0.0199503
0.131992
-0.0211656
0.130499
-0.0221823
0.128931
-0.0229451
0.127299
-0.0234056
0.125618
-0.0235184
0.12391
-0.0232443
0.122207
-0.0225541
0.120545
-0.0214331
0.118964
-0.019884
0.117508
-0.0179296
0.116222
-0.015613
0.115145
-0.0129964
0.11431
-0.0101574
0.113743
-0.00718434
0.113457
-0.00416961
0.113457
-0.00120358
0.113733
0.00163108
0.11427
0.00426374
0.115043
0.00663852
0.116021
0.00871531
0.11717
0.0104695
0.118456
0.0118905
0.119845
0.01298
0.121304
0.0137492
0.122804
0.0142156
0.124318
0.0144013
0.125826
0.0143449
0.014188
0.127292
0.130631
-0.0172933
-0.131954
0.129212
-0.0185317
0.127707
-0.0196608
0.126118
-0.0205927
0.124449
-0.0212766
0.122714
-0.0216701
0.12093
-0.0217348
0.119124
-0.0214383
0.117329
-0.0207583
0.115581
-0.0196857
0.113925
-0.0182274
0.112403
-0.0164079
0.111059
-0.0142692
0.109932
-0.0118697
0.109055
-0.00928036
0.108451
-0.00658039
0.108134
-0.00385192
0.108105
-0.0011745
0.108356
0.00137951
0.108871
0.00374853
0.109626
0.00588392
0.110591
0.00775078
0.111732
0.00932762
0.113018
0.0106051
0.114413
0.0115845
0.115887
0.0122754
0.11741
0.0126925
0.118957
0.0128543
0.120506
0.0127957
0.0126679
0.122026
0.126162
-0.015888
-0.127567
0.124652
-0.0170222
0.123049
-0.0180577
0.121356
-0.0188997
0.119582
-0.0195024
0.117741
-0.0198296
0.115856
-0.0198496
0.113955
-0.0195368
0.112071
-0.0188749
0.110245
-0.01786
0.10852
-0.0165023
0.10694
-0.0148273
0.105546
-0.0128755
0.104377
-0.0107007
0.103463
-0.00836678
0.102827
-0.00594418
0.10248
-0.00350482
0.102423
-0.00111786
0.102649
0.0011542
0.103139
0.00325831
0.10387
0.00515266
0.104814
0.0068072
0.105938
0.0082033
0.10721
0.00933281
0.108598
0.0101966
0.110071
0.0108027
0.1116
0.0111633
0.113161
0.0112938
0.114731
0.0112257
0.0111142
0.116284
0.121259
-0.014393
-0.122754
0.119654
-0.0154171
0.11795
-0.0163537
0.116154
-0.0171033
0.114276
-0.017625
0.112336
-0.017889
0.110356
-0.01787
0.108368
-0.0175487
0.106407
-0.0169143
0.104515
-0.0159674
0.102733
-0.0147206
0.101105
-0.0131997
0.0996727
-0.0114429
0.098471
-0.00949901
0.0975292
-0.00742496
0.0968672
-0.00528213
0.096495
-0.00313264
0.0964128
-0.00103569
0.0966115
0.000955507
0.0970739
0.00279595
0.0977764
0.00445016
0.098691
0.00589254
0.0997872
0.00710713
0.101033
0.00808675
0.102398
0.00883193
0.103851
0.00934923
0.105366
0.00964849
0.106918
0.00974237
0.108484
0.00965943
0.00955294
0.110045
0.115838
-0.0128083
-0.117423
0.114141
-0.0137194
0.112341
-0.0145541
0.110449
-0.015211
0.108478
-0.0156543
0.106449
-0.0158603
0.104389
-0.0158098
0.10233
-0.0154892
0.100308
-0.0148927
0.0983652
-0.0140243
0.0965432
-0.0128985
0.094884
-0.0115405
0.0934268
-0.00998563
0.0922052
-0.00827742
0.0912457
-0.0064655
0.0905662
-0.00460255
0.0901747
-0.00274121
0.0900703
-0.000931251
0.0902429
0.000782864
0.0906753
0.0023636
0.0913441
0.00378132
0.0922221
0.00501454
0.0932796
0.00604969
0.0944859
0.00688041
0.095811
0.00750682
0.0972262
0.00793405
0.0987047
0.00816994
0.100223
0.00822455
0.101758
0.00812383
0.0080136
0.103298
0.109808
-0.0111434
-0.111473
0.10803
-0.0119411
0.106148
-0.0126727
0.104176
-0.0132385
0.102129
-0.0136078
0.100032
-0.0137626
0.0979114
-0.0136894
0.0958018
-0.0133796
0.0937407
-0.0128317
0.0917686
-0.0120522
0.0899267
-0.0110567
0.0882552
-0.00986906
0.0867908
-0.0085212
0.0855645
-0.00705113
0.0846002
-0.00550119
0.0839132
-0.00391555
0.0835098
-0.00233786
0.0833876
-0.000808992
0.0835357
0.000634694
0.0839368
0.00196256
0.0845677
0.00315036
0.0854019
0.00418034
0.0864106
0.00504105
0.0875641
0.00572687
0.0888335
0.0062374
0.0901912
0.00657641
0.0916113
0.00674982
0.0930704
0.00676541
0.0945476
0.00664666
0.00652713
0.0960341
0.103067
-0.00941735
-0.104793
0.101229
-0.010103
0.0992886
-0.0107321
0.0972599
-0.0112098
0.0951629
-0.0115108
0.0930225
-0.0116223
0.0908689
-0.0115358
0.0887363
-0.0112471
0.0866626
-0.010758
0.0846875
-0.010077
0.0828505
-0.00921967
0.0811895
-0.00820806
0.0797383
-0.00707005
0.0785252
-0.00583797
0.0775709
-0.00454693
0.0768884
-0.00323299
0.0764818
-0.0019313
0.0763473
-0.000674524
0.0764736
0.000508454
0.0768428
0.0015933
0.0774325
0.00256067
0.0782166
0.00339622
0.0791672
0.00409047
0.0802557
0.00463837
0.0814541
0.00503903
0.0827357
0.00529482
0.0840757
0.00540982
0.0854514
0.00538967
0.0868429
0.00525521
0.00512393
0.0882461
0.0954967
-0.00765988
-0.0972542
0.0936299
-0.00823613
0.0916619
-0.00876415
0.0896097
-0.00915759
0.0874954
-0.00939651
0.0853461
-0.00947292
0.0831929
-0.00938264
0.0810709
-0.00912504
0.0790172
-0.0087043
0.0770701
-0.00812994
0.0752671
-0.00741671
0.0736432
-0.00658417
0.0722291
-0.0056559
0.0710495
-0.00465838
0.0701223
-0.00361976
0.0694577
-0.00256839
0.069058
-0.00153159
0.068918
-0.00053448
0.0690256
0.000400792
0.0693634
0.00125558
0.0699091
0.00201498
0.0706375
0.00266775
0.0715217
0.00320624
0.0725341
0.00362603
0.0736474
0.00392572
0.0748358
0.00410642
0.0760753
0.00417036
0.0773439
0.00412102
0.0786231
0.00397601
0.00383386
0.0799132
0.0869477
-0.00591286
-0.0886947
0.0850936
-0.00638201
0.0831395
-0.00681012
0.0811054
-0.00712342
0.0790157
-0.0073068
0.0768992
-0.00735643
0.0747881
-0.00727157
0.0727172
-0.00705416
0.0707227
-0.00670981
0.0688408
-0.00624804
0.0671062
-0.00568208
0.0655505
-0.00502842
0.0642006
-0.00430609
0.0630781
-0.00353581
0.0621974
-0.00273905
0.061566
-0.00193706
0.0611845
-0.00115002
0.0610463
-0.000396328
0.0611392
0.000307862
0.0614459
0.000948916
0.061945
0.00151586
0.0626125
0.00200028
0.0634225
0.00239624
0.0643485
0.00270002
0.0653642
0.00291002
0.0664443
0.00302628
0.0675653
0.00304945
0.0687052
0.0029811
0.0698461
0.00283507
0.00268772
0.0709923
0.0772158
-0.00422983
-0.0788988
0.0754271
-0.00459331
0.0735392
-0.00492225
0.0715752
-0.00515943
0.0695625
-0.00529411
0.0675314
-0.00532527
0.0655142
-0.00525437
0.0635448
-0.0050848
0.0616575
-0.00482253
0.0598857
-0.0044762
0.0582605
-0.00405688
0.0568096
-0.00357757
0.0555562
-0.00305268
0.0545178
-0.00249739
0.0537057
-0.00192697
0.0531249
-0.00135626
0.052774
-0.000799102
0.0526457
-0.000268054
0.0527277
0.000225901
0.0530032
0.000673422
0.0534522
0.00106691
0.0540521
0.00140038
0.0547788
0.00166949
0.0556075
0.00187133
0.0565131
0.00200442
0.0574711
0.00206829
0.0584578
0.00206278
0.0594498
0.0019891
0.0604286
0.00185629
0.00171404
0.0614022
0.0659852
-0.0026743
-0.0675408
0.0643289
-0.00293697
0.0625762
-0.00316956
0.0607521
-0.00333535
0.0588865
-0.00342853
0.0570103
-0.00344899
0.0551548
-0.00339893
0.0533521
-0.00328203
0.0516332
-0.00310366
0.0500279
-0.0028709
0.0485631
-0.00259212
0.0472623
-0.00227669
0.046144
-0.00193447
0.0452221
-0.00157547
0.0445046
-0.00120944
0.0439939
-0.000845616
0.0436873
-0.000492465
0.0435768
-0.000157594
0.0436505
0.00015227
0.0438926
0.000431349
0.0442847
0.000674804
0.0448063
0.000878683
0.0454358
0.00103998
0.0461506
0.00115659
0.0469277
0.00122734
0.0477441
0.00125189
0.0485762
0.00123062
0.0493989
0.00116643
0.0501948
0.00106038
0.000928829
0.05098
0.0527318
-0.00133413
-0.0540719
0.0513024
-0.00150756
0.0497846
-0.00165182
0.0482024
-0.00175316
0.0465853
-0.00181137
0.0449625
-0.00182624
0.0433633
-0.00179967
0.041816
-0.00173478
0.040348
-0.00163564
0.0389842
-0.00150716
0.0377469
-0.00135477
0.0366543
-0.00118414
0.0357208
-0.00100091
0.0349559
-0.000810542
0.0343645
-0.000618094
0.0339471
-0.000428217
0.0336997
-0.000245096
0.0336146
-7.24913e-05
0.0336804
8.64574e-05
0.0338832
0.000228629
0.0342066
0.000351415
0.0346327
0.000452563
0.0351424
0.000530223
0.035716
0.000583008
0.0363332
0.000610175
0.0369735
0.000611597
0.0376156
0.000588515
0.0382374
0.000544625
0.0388264
0.000471342
0.000347669
0.0394076
0.0365882
-0.000361447
-0.0375609
0.0355326
-0.000451965
0.034401
-0.000520166
0.0332141
-0.000566248
0.031996
-0.000593335
0.0307719
-0.000602097
0.0295664
-0.000594195
0.0284033
-0.000571695
0.0273045
-0.000536829
0.0262893
-0.000491944
0.0253739
-0.000439383
0.0245712
-0.000381386
0.0238903
-0.00032001
0.0233368
-0.000257089
0.0229129
-0.000194218
0.0226175
-0.000132791
0.0224465
-7.4048e-05
0.022394
-2.00283e-05
0.0224493
3.11276e-05
0.0226018
7.61963e-05
0.0228385
0.000114708
0.023145
0.000145988
0.0235059
0.000169315
0.0239049
0.000184053
0.0243253
0.00018973
0.0247509
0.000185998
0.0251662
0.000173221
0.0255586
0.000152264
0.0259173
0.000112608
2.34705e-05
0.0262415
0.0160274
-0.0163888
0.0155754
0.0150552
0.014489
0.0138956
0.0132936
0.0126994
0.0121277
0.0115908
0.0110989
0.0106595
0.0102781
0.00995811
0.00970102
0.0095068
0.00937401
0.00929996
0.00927993
0.00931106
0.00938726
0.00950197
0.00964795
0.00981727
0.0100013
0.0101911
0.010377
0.0105503
0.0107025
0.0108151
0.0108386
0.354146
-0.173836
0.337632
-0.17158
0.3216
-0.168831
0.30597
-0.165892
0.290686
-0.162811
0.275702
-0.159628
0.260995
-0.156387
0.246547
-0.153122
0.232343
-0.149858
0.21837
-0.146608
0.204608
-0.143376
0.191039
-0.140153
0.177642
-0.136921
0.164399
-0.133649
0.151292
-0.130297
0.138314
-0.126816
0.125462
-0.123151
0.112745
-0.119238
0.100188
-0.115009
0.0878279
-0.110394
0.0757198
-0.105315
0.0639369
-0.0996902
0.0525719
-0.0934283
0.0417393
-0.0864215
0.0315773
-0.0785327
0.022256
-0.0695775
0.0140039
-0.0592887
0.00715271
-0.0472208
0.00220284
-0.032611
-0.014186
0.336814
-0.157941
0.321118
-0.155884
0.305766
-0.153479
0.290721
-0.150848
0.275958
-0.148048
0.261464
-0.145134
0.247231
-0.142154
0.233248
-0.139139
0.219504
-0.136114
0.205984
-0.133089
0.192674
-0.130066
0.179557
-0.127036
0.166618
-0.123981
0.153843
-0.120874
0.141224
-0.117678
0.128759
-0.114351
0.116454
-0.110846
0.104327
-0.10711
0.0924043
-0.103087
0.0807277
-0.0987174
0.0693512
-0.0939385
0.0583438
-0.0886827
0.0477898
-0.0828744
0.0377912
-0.0764229
0.0284704
-0.0692119
0.019981
-0.0610881
0.0125303
-0.051838
0.00640327
-0.0410937
0.00200101
-0.0282088
-0.012185
0.319235
-0.142811
0.304305
-0.140954
0.289626
-0.1388
0.275197
-0.136418
0.261013
-0.133864
0.247071
-0.131193
0.233368
-0.128451
0.219898
-0.125669
0.206653
-0.122868
0.193623
-0.120059
0.180799
-0.117242
0.16817
-0.114407
0.155727
-0.111539
0.143464
-0.108611
0.131379
-0.105593
0.119476
-0.102448
0.107765
-0.0991358
0.0962677
-0.0956126
0.0850124
-0.0918317
0.0740395
-0.0877445
0.0634003
-0.0832992
0.0531579
-0.0784403
0.0433885
-0.073105
0.0341832
-0.0672175
0.0256516
-0.0606803
0.0179315
-0.053368
0.0112043
-0.0451108
0.00571269
-0.0356021
0.0017925
-0.0242886
-0.0103925
0.302497
-0.128346
0.28821
-0.126666
0.274123
-0.124713
0.260245
-0.12254
0.246584
-0.120203
0.233145
-0.117755
0.219932
-0.115237
0.206942
-0.112679
0.194172
-0.110099
0.181618
-0.107505
0.169274
-0.104898
0.157134
-0.102267
0.145194
-0.0995983
0.133451
-0.0968684
0.121909
-0.0940508
0.110575
-0.0911142
0.0994643
-0.0880247
0.0885973
-0.0847456
0.0780041
-0.0812386
0.0677231
-0.0774635
0.0578019
-0.073378
0.0482977
-0.0689362
0.0392789
-0.0640863
0.0308266
-0.0587652
0.0230385
-0.0528922
0.0160362
-0.0463657
0.00997807
-0.0390527
0.00507033
-0.0306944
0.00159093
-0.0208092
-0.00880153
0.286552
-0.114445
0.272805
-0.112919
0.259232
-0.11114
0.24585
-0.109158
0.232672
-0.107025
0.219709
-0.104791
0.206966
-0.102494
0.194445
-0.100158
0.182146
-0.0978001
0.170068
-0.0954269
0.158207
-0.0930368
0.146561
-0.0906214
0.13513
-0.0881665
0.123914
-0.0856526
0.112919
-0.0830564
0.102157
-0.0803518
0.0916423
-0.0775101
0.0813977
-0.074501
0.071452
-0.0712929
0.0618413
-0.0678528
0.0526092
-0.0641458
0.0438074
-0.0601344
0.035497
-0.0557758
0.0277498
-0.051018
0.020652
-0.0457944
0.0143105
-0.0400242
0.00886284
-0.0336051
0.00448455
-0.0263161
0.0014034
-0.017728
-0.00739813
0.271366
-0.101031
0.258096
-0.0996497
0.244992
-0.0980358
0.232072
-0.0962383
0.219355
-0.0943078
0.206852
-0.092288
0.19457
-0.0902119
0.182514
-0.0881019
0.170685
-0.0859713
0.159084
-0.0838252
0.147708
-0.0816616
0.13656
-0.0794727
0.125639
-0.0772458
0.114951
-0.0749641
0.104502
-0.0726078
0.0943049
-0.0701547
0.084376
-0.0675812
0.0747372
-0.0648621
0.0654158
-0.0619715
0.0564453
-0.0588823
0.0478654
-0.0555659
0.0397226
-0.0519916
0.0320711
-0.0481244
0.0249745
-0.0439214
0.0185082
-0.0393281
0.0127656
-0.0342817
0.00786643
-0.0287059
0.00396014
-0.0224098
0.00123323
-0.0150011
-0.00616491
0.256932
-0.0880634
0.244106
-0.086824
0.231446
-0.0853755
0.218973
-0.0837654
0.206706
-0.0820401
0.194656
-0.0802382
0.182832
-0.0783883
0.17124
-0.0765093
0.15988
-0.0746121
0.148756
-0.0727005
0.137866
-0.0707724
0.127214
-0.0688205
0.116802
-0.0668337
0.106636
-0.0647977
0.0967235
-0.0626958
0.0870782
-0.0605095
0.0777162
-0.0582191
0.0686583
-0.0558043
0.0599304
-0.0532435
0.051563
-0.0505149
0.0435921
-0.047595
0.0360593
-0.0444588
0.0290127
-0.0410778
0.0225081
-0.0374168
0.0166115
-0.0334314
0.0114042
-0.0290744
0.00699048
-0.0242922
0.00349858
-0.0189179
0.00108217
-0.0125847
-0.00508274
0.243258
-0.0755227
0.230863
-0.0744285
0.218638
-0.0731504
0.206606
-0.0717335
0.194784
-0.0702191
0.183187
-0.0686405
0.17182
-0.067022
0.160691
-0.0653794
0.1498
-0.0637216
0.139151
-0.0620511
0.128744
-0.0603657
0.118583
-0.0586591
0.108671
-0.0569217
0.0990144
-0.0551414
0.089623
-0.0533043
0.0805088
-0.0513952
0.0716877
-0.0493981
0.0631796
-0.0472961
0.0550081
-0.0450721
0.0472014
-0.0427081
0.0397917
-0.0401853
0.0328162
-0.0374834
0.0263177
-0.0345793
0.0203452
-0.0314442
0.0149561
-0.0280423
0.0102211
-0.0243395
0.00623139
-0.0203024
0.00309809
-0.0157846
0.000950095
-0.0104367
-0.00413264
0.230353
-0.0634057
0.218386
-0.062462
0.206597
-0.0613608
0.195007
-0.0601434
0.183633
-0.0588455
0.172488
-0.0574953
0.161579
-0.0561128
0.15091
-0.0547109
0.140485
-0.0532966
0.130306
-0.0518717
0.120374
-0.0504341
0.110693
-0.0489783
0.101268
-0.0474962
0.0921043
-0.0459778
0.0832119
-0.0444118
0.0746025
-0.0427859
0.0662915
-0.041087
0.0582971
-0.0393018
0.0506413
-0.0374163
0.0433495
-0.0354163
0.0364509
-0.0332867
0.0299788
-0.0310114
0.0239711
-0.0285716
0.0184712
-0.0259442
0.0135291
-0.0231002
0.00920627
-0.0200167
0.00558218
-0.0166784
0.0027547
-0.0129571
0.0008356
-0.00851761
-0.00329704
0.21822
-0.0517179
0.206687
-0.0509298
0.195338
-0.0500114
0.184193
-0.0489986
0.173269
-0.0479215
0.162577
-0.0468029
0.152123
-0.045659
0.141912
-0.0445
0.131947
-0.0433311
0.122229
-0.0421539
0.112761
-0.0409661
0.103546
-0.0397634
0.0945888
-0.0385391
0.0858962
-0.0372852
0.0774769
-0.0359925
0.0693425
-0.0346515
0.0615071
-0.0332517
0.0539879
-0.0317826
0.046805
-0.0302333
0.0399814
-0.0285927
0.0335436
-0.0268489
0.0275216
-0.0249893
0.0219492
-0.0229993
0.0168649
-0.0208598
0.0123127
-0.018548
0.008346
-0.01605
0.00503373
-0.0133661
0.00246313
-0.0103865
0.000736462
-0.00679094
-0.00256058
0.206849
-0.0404683
0.195759
-0.0398397
0.184855
-0.0391079
0.17416
-0.0383028
0.163686
-0.0374482
0.153445
-0.0365621
0.143443
-0.0356568
0.133683
-0.0347401
0.124168
-0.0338161
0.1149
-0.0328856
0.105881
-0.031947
0.0971142
-0.0309966
0.0886044
-0.0300293
0.080358
-0.0290388
0.0723837
-0.0280183
0.0646923
-0.0269601
0.0572971
-0.0258565
0.0502139
-0.0246994
0.0434612
-0.0234806
0.03706
-0.0221916
0.0310345
-0.0208234
0.0254118
-0.0193666
0.0202223
-0.0178098
0.0155006
-0.0161381
0.0112859
-0.0143333
0.0076247
-0.0123888
0.00457576
-0.0103171
0.00221746
-0.00802821
0.000649984
-0.00522347
-0.0019106
0.196217
-0.0296665
0.185576
-0.0291988
0.175123
-0.0286548
0.164878
-0.0280576
0.154855
-0.0274246
0.145061
-0.026769
0.135504
-0.0260997
0.126187
-0.0254224
0.117111
-0.02474
0.108278
-0.0240528
0.0996905
-0.0233597
0.0913519
-0.022658
0.0832666
-0.0219439
0.0754406
-0.0212129
0.0678823
-0.0204599
0.0606018
-0.0196795
0.0536115
-0.0188662
0.0469261
-0.018014
0.0405627
-0.0171172
0.0345407
-0.0161696
0.0288822
-0.0151649
0.0236117
-0.0140962
0.0187573
-0.0129553
0.0143502
-0.011731
0.0104262
-0.0104093
0.00702592
-0.00898853
0.00419778
-0.007489
0.00201166
-0.00584209
0.000573296
-0.00378511
-0.0013373
0.186287
-0.0193198
0.1761
-0.019012
0.1661
-0.0186543
0.156304
-0.0182622
0.146727
-0.0178471
0.137375
-0.0174175
0.128255
-0.0169792
0.119368
-0.0165358
0.110717
-0.0160891
0.102304
-0.0156394
0.0941302
-0.0151859
0.086199
-0.0147268
0.0785146
-0.0142596
0.0710831
-0.0137814
0.0639122
-0.013289
0.0570114
-0.0127788
0.0503926
-0.0122473
0.0440692
-0.0116907
0.0380573
-0.0111053
0.0323748
-0.0104871
0.027042
-0.00983207
0.0220817
-0.00913589
0.0175196
-0.00839323
0.0133849
-0.00759629
0.00971084
-0.00673531
0.00653337
-0.00581106
0.00388959
-0.00484521
0.00183994
-0.00379244
0.00050371
-0.00244888
-0.000833592
0.177011
-0.00943192
0.16728
-0.00928077
0.157731
-0.00910524
0.148381
-0.00891296
0.139244
-0.00870955
0.130325
-0.0084991
0.121631
-0.00828446
0.113162
-0.00806738
0.104922
-0.00784871
0.0969111
-0.0076286
0.0891318
-0.00740662
0.081587
-0.00718191
0.0742807
-0.00695328
0.0672186
-0.0067193
0.060408
-0.00647838
0.0538581
-0.00622884
0.0475797
-0.00596891
0.0415858
-0.0056968
0.0358912
-0.00541067
0.0305127
-0.00510862
0.0254694
-0.0047887