/*--------------------------------*- C++ -*----------------------------------*\
  =========                 |
  \\      /  F ield         | OpenFOAM: The Open Source CFD Toolbox
   \\    /   O peration     | Website:  https://openfoam.org
    \\  /    A nd           | Version:  12
     \\/     M anipulation  |
\*---------------------------------------------------------------------------*/
FoamFile
{
    format      ascii;
    class       volScalarField;
    location    "20";
    object      pMean;
}
// * * * * * * * * * * * * * * * * * * * * * * * * * * * * * * * * * * * * * //

dimensions      [0 2 -2 0 0 0 0];

internalField   nonuniform List<scalar> 
6750
(
-0.0186721
-0.018745
-0.018923
-0.0192107
-0.0196838
-0.0158375
-0.0158038
-0.0158424
-0.0160136
-0.016203
-0.0129328
-0.0129038
-0.012935
-0.0130442
-0.0130963
-0.0100618
-0.0100562
-0.0100747
-0.0101285
-0.0101165
-0.00728524
-0.00731025
-0.00732474
-0.00733889
-0.007281
-0.00468156
-0.00474071
-0.00475777
-0.0047409
-0.0046451
-0.00230405
-0.00239851
-0.00241996
-0.00237483
-0.00224434
-0.000187038
-0.00031643
-0.000342059
-0.000269672
-0.000106207
0.00164751
0.00148478
0.00145589
0.00155452
0.00174885
0.00318815
0.00299478
0.00296379
0.00308685
0.00330895
0.0044332
0.0042129
0.00418094
0.00432566
0.00457142
0.00538988
0.00514701
0.00511525
0.00527803
0.00554262
0.00607322
0.00581215
0.00578205
0.00595868
0.00623688
0.0065044
0.00622924
0.00620318
0.00638855
0.00667488
0.00670574
0.00642556
0.00640529
0.00659273
0.0068817
0.00670793
0.00642777
0.00640757
0.00659504
0.00688402
0.00651099
0.0062359
0.00620995
0.00639543
0.00668181
0.00608418
0.00582323
0.0057933
0.0059701
0.00624839
0.00540515
0.00516242
0.00513089
0.00529391
0.00555862
0.00445268
0.00423255
0.00420086
0.00434587
0.00459175
0.00321171
0.00301855
0.00298786
0.00311123
0.00333344
0.00167501
0.0015125
0.00148395
0.0015829
0.00177737
-0.000155786
-0.000284934
-0.00031017
-0.000237359
-7.36235e-05
-0.00226932
-0.00236351
-0.00238451
-0.00233885
-0.00220804
-0.00464371
-0.00470259
-0.00471918
-0.00470177
-0.00460577
-0.00724467
-0.0072694
-0.0072834
-0.00729704
-0.00723911
-0.0100189
-0.0100131
-0.0100311
-0.0100845
-0.0100726
-0.0128881
-0.0128589
-0.0128897
-0.0129986
-0.0130512
-0.0157914
-0.0157575
-0.0157958
-0.0159669
-0.0161571
-0.0186248
-0.0186976
-0.0188753
-0.019163
-0.0196368
-0.0221587
-0.0223046
-0.0221495
-0.0221578
-0.0222661
-0.0224051
-0.0225512
-0.0226853
-0.0227869
-0.0228361
-0.022815
-0.0227097
-0.0225116
-0.0222187
-0.0218371
-0.0213799
-0.0208663
-0.0203188
-0.01976
-0.0192112
-0.0186901
-0.0182103
-0.017781
-0.0174072
-0.0170909
-0.0168316
-0.0166277
-0.0164558
-0.0162988
-0.0164362
-0.0201483
-0.0201796
-0.0201633
-0.0203231
-0.0205408
-0.020772
-0.0210114
-0.0212511
-0.021476
-0.0216686
-0.021811
-0.0218864
-0.021882
-0.0217911
-0.0216148
-0.021362
-0.0210479
-0.0206933
-0.0203184
-0.0199422
-0.0195804
-0.0192441
-0.0189401
-0.0186716
-0.0184395
-0.018245
-0.0180887
-0.01795
-0.0177658
-0.0176913
-0.0182437
-0.0183689
-0.0184246
-0.0186025
-0.0188177
-0.0190541
-0.0193161
-0.0196011
-0.0199013
-0.0202064
-0.0205039
-0.0207798
-0.0210198
-0.0212112
-0.0213442
-0.0214131
-0.0214171
-0.0213589
-0.0212464
-0.0210893
-0.0208982
-0.0206841
-0.0204568
-0.0202251
-0.0199961
-0.0197765
-0.019575
-0.0193853
-0.0191527
-0.0190025
-0.0166291
-0.0168149
-0.0168837
-0.017048
-0.0172576
-0.0175043
-0.0177947
-0.0181305
-0.0185093
-0.0189259
-0.0193713
-0.0198326
-0.0202937
-0.0207362
-0.0211412
-0.0214913
-0.0217724
-0.0219748
-0.0220948
-0.0221338
-0.0220982
-0.0219977
-0.0218444
-0.0216512
-0.0214303
-0.0211937
-0.0209535
-0.0207123
-0.020432
-0.0202367
-0.0151038
-0.0152921
-0.0153598
-0.0155261
-0.0157492
-0.0160259
-0.0163639
-0.0167685
-0.0172411
-0.0177793
-0.0183754
-0.019016
-0.0196824
-0.0203511
-0.0209962
-0.0215914
-0.0221132
-0.0225431
-0.0228693
-0.0230873
-0.0231996
-0.0232147
-0.0231452
-0.023006
-0.0228129
-0.0225811
-0.0223251
-0.022052
-0.0217338
-0.0215004
-0.0135785
-0.0137587
-0.0138312
-0.0140122
-0.0142634
-0.0145819
-0.0149804
-0.0154665
-0.0160439
-0.0167116
-0.017462
-0.0182806
-0.0191454
-0.0200284
-0.0208973
-0.021719
-0.0224625
-0.0231024
-0.0236207
-0.0240082
-0.0242643
-0.0243962
-0.0244162
-0.0243406
-0.0241872
-0.0239736
-0.0237175
-0.0234259
-0.0230847
-0.0228342
-0.0120422
-0.0122201
-0.0123102
-0.0125135
-0.012802
-0.0131724
-0.0136409
-0.0142178
-0.0149078
-0.0157105
-0.0166178
-0.0176134
-0.0186721
-0.0197613
-0.0208435
-0.0218794
-0.0228319
-0.0236697
-0.0243698
-0.0249193
-0.025315
-0.0255625
-0.0256742
-0.0256672
-0.0255605
-0.0253737
-0.0251282
-0.024829
-0.0244745
-0.0242358
-0.0104893
-0.0106832
-0.010796
-0.0110301
-0.0113627
-0.0117955
-0.0123432
-0.0130193
-0.0138289
-0.0147715
-0.0158381
-0.0170102
-0.0182595
-0.0195491
-0.0208365
-0.0220772
-0.0232286
-0.0242547
-0.0251283
-0.0258332
-0.0263642
-0.0267257
-0.02693
-0.0269947
-0.0269395
-0.0267877
-0.0265585
-0.026262
-0.0259048
-0.0256989
-0.00891252
-0.00913931
-0.00928314
-0.00955688
-0.00994261
-0.0104465
-0.0110824
-0.0118653
-0.012801
-0.0138885
-0.0151174
-0.0164667
-0.0179049
-0.0193911
-0.0208782
-0.0223169
-0.02366
-0.0248672
-0.0259079
-0.0267632
-0.027426
-0.0278999
-0.0281971
-0.0283354
-0.0283358
-0.0282236
-0.0280164
-0.0277268
-0.0273759
-0.0272203
-0.00730547
-0.00758379
-0.00777046
-0.00808834
-0.00853494
-0.00911777
-0.0098514
-0.010749
-0.0118177
-0.0130555
-0.0144504
-0.0159788
-0.017606
-0.0192872
-0.020971
-0.0226036
-0.0241337
-0.0255174
-0.0267209
-0.027723
-0.0285151
-0.0291002
-0.0294903
-0.0297036
-0.0297634
-0.0296939
-0.029515
-0.0292374
-0.0288972
-0.0288
-0.005663
-0.00600934
-0.00624618
-0.00661688
-0.00713362
-0.00780431
-0.00864355
-0.00966411
-0.010873
-0.0122671
-0.0138327
-0.0155435
-0.0173615
-0.0192381
-0.0211178
-0.0229427
-0.0246577
-0.0262153
-0.0275792
-0.0287262
-0.0296465
-0.0303422
-0.0308255
-0.0311153
-0.0312357
-0.031212
-0.0310652
-0.0308031
-0.0304765
-0.0304402
-0.00397942
-0.00440846
-0.00470396
-0.00513427
-0.00573061
-0.00649879
-0.00745248
-0.00860436
-0.0099612
-0.0115187
-0.0132609
-0.0151589
-0.0171711
-0.0192454
-0.0213222
-0.02334
-0.0252398
-0.0269711
-0.0284951
-0.0297867
-0.030835
-0.0316419
-0.0322192
-0.0325865
-0.0327692
-0.0327936
-0.0326801
-0.0324369
-0.0321263
-0.0321454
-0.00224768
-0.00277137
-0.00313441
-0.0036347
-0.00431929
-0.00519338
-0.00627072
-0.00756338
-0.00907709
-0.0108061
-0.0127322
-0.0148235
-0.0170352
-0.0193113
-0.0215887
-0.0238018
-0.0258885
-0.0277952
-0.0294808
-0.0309186
-0.0320965
-0.0330159
-0.0336889
-0.0341356
-0.0343822
-0.0344562
-0.0343786
-0.0341577
-0.0338622
-0.0339239
-0.00046105
-0.00108711
-0.0015261
-0.00210615
-0.00288853
-0.00387914
-0.00509052
-0.00653468
-0.00821541
-0.0101255
-0.0122441
-0.0145366
-0.0169547
-0.0194387
-0.0219218
-0.0243349
-0.0266126
-0.0286986
-0.0305493
-0.0321365
-0.0334471
-0.0344821
-0.0352538
-0.0357828
-0.0360957
-0.0362215
-0.0361826
-0.0359867
-0.0357034
-0.0357874
0.00138861
0.000657396
0.000134715
-0.000536188
-0.00142809
-0.00254718
-0.00390486
-0.00551171
-0.00737085
-0.00947284
-0.0117944
-0.0142976
-0.0169308
-0.0196307
-0.0223267
-0.0249465
-0.0274214
-0.0296924
-0.0317139
-0.0334558
-0.0349042
-0.0360595
-0.036934
-0.0375489
-0.0379319
-0.0381129
-0.0381159
-0.0379482
-0.0376729
-0.0377525
0.00331114
0.00247738
0.00186317
0.00108881
7.39817e-05
-0.00118712
-0.00270452
-0.00448697
-0.00653758
-0.00884418
-0.0113806
-0.0141059
-0.0169648
-0.0198905
-0.0228089
-0.0256441
-0.0283246
-0.0307888
-0.0329888
-0.034893
-0.0364862
-0.0377686
-0.0387521
-0.0394581
-0.0399163
-0.040157
-0.0402061
-0.0400705
-0.0397984
-0.0398409
0.00531876
0.00439108
0.00367771
0.00278533
0.00163202
0.000213573
-0.0014777
-0.00345171
-0.00570893
-0.00823473
-0.0110001
-0.0139608
-0.0170581
-0.0202217
-0.0233739
-0.0264357
-0.0293326
-0.0320005
-0.0343893
-0.0364658
-0.0382135
-0.039632
-0.0407332
-0.0415386
-0.0420778
-0.0423846
-0.0424868
-0.0423879
-0.0421131
-0.0420809
0.00742671
0.00642115
0.00560222
0.00457412
0.00326431
0.00167103
-0.000212417
-0.00239571
-0.00487677
-0.00763859
-0.0106491
-0.0138609
-0.0172116
-0.0206274
-0.0240274
-0.0273294
-0.0304563
-0.0333411
-0.0359319
-0.0381934
-0.0401083
-0.0416748
-0.042905
-0.0438204
-0.0444507
-0.0448321
-0.0449963
-0.044942
-0.0446585
-0.0445094
0.00965526
0.00859516
0.00766407
0.00648046
0.00499382
0.00320528
0.00110798
-0.00130547
-0.00403055
-0.00704793
-0.0103226
-0.0138035
-0.0174252
-0.0211104
-0.024775
-0.0283339
-0.0317072
-0.0348254
-0.0376344
-0.0400973
-0.0421951
-0.0439254
-0.0452995
-0.0463395
-0.0470746
-0.0475431
-0.0477802
-0.0477805
-0.047481
-0.0471727
0.0120333
0.0109494
0.00989939
0.00853696
0.00684717
0.00483852
0.00250432
-0.00016362
-0.00315635
-0.00645208
-0.0100128
-0.0137844
-0.0176979
-0.0216728
-0.0256221
-0.0294578
-0.0330974
-0.0364692
-0.0395167
-0.0422013
-0.0445022
-0.0464159
-0.0479531
-0.0491357
-0.0499923
-0.0505641
-0.0508904
-0.05096
-0.0506425
-0.0501315
0.0146018
0.0135327
0.0123587
0.0107888
0.00886191
0.00660305
0.00400261
0.00105283
-0.00223502
-0.00583598
-0.00970893
-0.0137964
-0.0180264
-0.0223153
-0.0265734
-0.0307101
-0.0346404
-0.0382903
-0.0416013
-0.0445327
-0.047062
-0.0491842
-0.050909
-0.0522576
-0.0532588
-0.053957
-0.0543992
-0.0545536
-0.0542153
-0.0534629
0.0174188
0.0164077
0.0150994
0.0132866
0.0110864
0.00854246
0.00564142
0.00237607
-0.00123991
-0.00517821
-0.00939453
-0.0138283
-0.0184044
-0.0230367
-0.0276328
-0.0320998
-0.0363505
-0.0403089
-0.0439142
-0.0471237
-0.0499129
-0.0522752
-0.0542189
-0.0557641
-0.0569395
-0.0577917
-0.0583756
-0.0586434
-0.05829
-0.0572644
0.0205711
0.0196666
0.0182113
0.0161071
0.0135892
0.0107184
0.00747358
0.00385115
-0.000133122
-0.00444783
-0.00904547
-0.0138625
-0.0188212
-0.0238328
-0.0288029
-0.0336364
-0.0382444
-0.0425487
-0.0464866
-0.0500133
-0.0531021
-0.0557445
-0.057947
-0.0597286
-0.0611182
-0.0621611
-0.0629241
-0.0633437
-0.0629886
-0.061666
0.0241888
0.0234407
0.0218111
0.0193584
0.0164654
0.0132127
0.00957262
0.00554234
0.00113995
-0.00359977
-0.00862613
-0.0138728
-0.0192595
-0.0246955
-0.0300845
-0.03533
-0.0403413
-0.0450387
-0.0493574
-0.0532504
-0.056689
-0.0596622
-0.0621745
-0.0642428
-0.0658953
-0.0671801
-0.0681718
-0.0687888
-0.0684619
-0.0668364
0.0284573
0.0278972
0.0260632
0.0231964
0.0198557
0.0161485
0.0120472
0.00754412
0.00265958
-0.00256773
-0.00808383
-0.0138197
-0.019693
-0.0256113
-0.031477
-0.0371925
-0.042666
-0.0478165
-0.0525775
-0.0568997
-0.0607521
-0.0641213
-0.0670092
-0.0694299
-0.0714107
-0.0730059
-0.0742902
-0.0751613
-0.0749048
-0.0729986
0.0337044
0.0333417
0.0312371
0.0278603
0.0239659
0.0197134
0.0150619
0.00999804
0.00454524
-0.00125361
-0.00734119
-0.013646
-0.0200837
-0.0265608
-0.0329789
-0.0392403
-0.0452527
-0.0509343
-0.0562172
-0.0610501
-0.0653997
-0.0692496
-0.0725988
-0.0754581
-0.077853
-0.0798433
-0.0815157
-0.082724
-0.0826115
-0.0804781
0.040401
0.0401877
0.0377119
0.0336904
0.0291185
0.0241956
0.0188683
0.0131194
0.00697623
0.000486908
-0.00628715
-0.0132715
-0.0203805
-0.02752
-0.0345923
-0.0415005
-0.0481534
-0.0544692
-0.0603798
-0.0658324
-0.0707909
-0.0752356
-0.0791614
-0.0825746
-0.0854977
-0.0879938
-0.0901578
-0.0918155
-0.0919512
-0.0897041
0.0496598
0.0493515
0.04624
0.0413483
0.0358848
0.0300788
0.0238697
0.0172387
0.010218
0.00286119
-0.00476631
-0.0125877
-0.0205165
-0.0284598
-0.0363224
-0.0440107
-0.0514368
-0.0585226
-0.0652009
-0.0714187
-0.0771384
-0.0823374
-0.0870065
-0.0911477
-0.0947797
-0.097966
-0.100804
-0.103103
-0.103741
-0.101677
0.0626385
0.0617507
0.0576739
0.0517139
0.045147
0.0382052
0.0308278
0.023012
0.0148065
0.00627831
-0.00249673
-0.0114353
-0.0204487
-0.0294455
-0.0383351
-0.0470294
-0.0554478
-0.063523
-0.0711889
-0.0783906
-0.0850869
-0.0912488
-0.096858
-0.101906
-0.106401
-0.110395
-0.113979
-0.116979
-0.118333
-0.116932
0.0868031
0.0837902
0.0772776
0.0692288
0.0606518
0.0516613
0.0422272
0.0323947
0.0222457
0.0118673
0.00134335
-0.00924315
-0.0198123
-0.0302894
-0.0406062
-0.0507016
-0.060518
-0.0699959
-0.0790918
-0.0877656
-0.0959787
-0.103696
-0.110888
-0.117529
-0.123602
-0.129125
-0.134165
-0.138668
-0.141845
-0.142166
-0.0202007
-0.0188466
-0.0171498
-0.0155941
-0.0141059
-0.0126238
-0.011139
-0.00964877
-0.00814598
-0.00662068
-0.00506083
-0.00345178
-0.00177613
-1.34469e-05
0.00186042
0.00387377
0.00605986
0.00845802
0.0111154
0.014089
0.0174494
0.0212844
0.0257068
0.0308614
0.0369432
0.0442333
0.0530768
0.0641615
0.0774346
0.0962625
-0.0159237
-0.0145566
-0.0131136
-0.0117665
-0.0104379
-0.00908713
-0.0077063
-0.00628984
-0.00482932
-0.00331514
-0.00173689
-8.29904e-05
0.00165977
0.00350659
0.00547541
0.00758736
0.00986794
0.0123484
0.0150677
0.0180755
0.0214358
0.0252328
0.0295798
0.03463
0.0406002
0.0478101
0.0567032
0.0681119
0.0824385
0.102996
-0.0126976
-0.0114155
-0.0101252
-0.00888288
-0.0076208
-0.00631646
-0.00496685
-0.00356678
-0.00210785
-0.000580362
0.00102637
0.00272435
0.0045272
0.00645049
0.00851222
0.0107335
0.0131399
0.0157622
0.0186393
0.0218206
0.0253703
0.0293737
0.0339462
0.0392479
0.0455074
0.0530625
0.0624018
0.0744099
0.0896964
0.111601
-0.00970904
-0.00851223
-0.00730815
-0.00612996
-0.00491967
-0.00365796
-0.00234003
-0.00095896
0.000494609
0.002031
0.00366147
0.0053986
0.00725665
0.00925199
0.0114037
0.0137342
0.0162709
0.019047
0.0221043
0.0254956
0.0292892
0.0335756
0.0384763
0.044159
0.0508609
0.0589276
0.0688601
0.0815313
0.0976268
0.120405
-0.00688117
-0.00576812
-0.00464242
-0.00352502
-0.00236281
-0.00113704
0.00015817
0.00153025
0.0029886
0.00454358
0.00620656
0.00799037
0.00990963
0.0119813
0.0142252
0.0166651
0.0193297
0.0222545
0.0254838
0.0290734
0.0330955
0.0376449
0.0428489
0.0488813
0.0559856
0.0645128
0.074969
0.0882137
0.105002
0.128549
-0.00425928
-0.0032277
-0.00217471
-0.00111084
1.25171e-05
0.00121239
0.00249462
0.00386661
0.00533759
0.00691784
0.0086188
0.0104534
0.0124366
0.0145857
0.0169212
0.0194677
0.0222552
0.0253205
0.0287095
0.0324802
0.0367073
0.0414886
0.0469547
0.0532836
0.0607228
0.069627
0.0805076
0.0942196
0.111592
0.135867
-0.0018715
-0.000917132
7.02199e-05
0.00108861
0.00218125
0.00336278
0.00463869
0.00601617
0.00750421
0.00911293
0.0108537
0.0127396
0.0147856
0.0170095
0.0194322
0.0220792
0.0249812
0.0281761
0.0317111
0.0356454
0.0400554
0.0450406
0.0507339
0.0573156
0.0650356
0.074251
0.0854784
0.0995728
0.117428
0.142337
0.000259377
0.00114197
0.0020711
0.00305155
0.00412027
0.00528926
0.00656356
0.00795004
0.00945735
0.0110954
0.0128753
0.0148103
0.0169155
0.0192088
0.0217118
0.0244503
0.0274559
0.0307671
0.034432
0.0385107
0.0430806
0.0482425
0.0541304
0.0609259
0.0688804
0.0783522
0.0898631
0.104269
0.122535
0.147917
0.00211409
0.00293132
0.00381006
0.00475967
0.00581021
0.00697111
0.00824693
0.00964418
0.0111711
0.0128373
0.0146539
0.0166339
0.0187925
0.0211481
0.0237223
0.0265416
0.0296379
0.0330504
0.0368275
0.0410302
0.0457364
0.0510475
0.0570982
0.0640707
0.072217
0.0818958
0.0936337
0.108288
0.126923
0.152579
0.00367979
0.0044393
0.0052758
0.00620102
0.0072381
0.00839413
0.00967323
0.0110815
0.0126269
0.0143187
0.0161678
0.0181872
0.0203922
0.0228013
0.0254366
0.0283246
0.0314977
0.0349953
0.0388664
0.0431723
0.0479912
0.0534248
0.0596082
0.0667236
0.0750228
0.0848639
0.0967786
0.111623
0.130563
0.156383
0.00495175
0.0056623
0.00646477
0.00737136
0.00839876
0.0095521
0.0108351
0.0122537
0.0138152
0.0155288
0.0174053
0.0194575
0.021701
0.0241543
0.0268396
0.0297837
0.0330191
0.0365857
0.0405325
0.0449211
0.0498299
0.0553609
0.0616489
0.0688761
0.0772936
0.0872579
0.0993061
0.114284
0.133466
0.159414
0.00593385
0.00660503
0.0073815
0.00827448
0.00929517
0.0104472
0.011734
0.0131612
0.0147359
0.016467
0.0183651
0.0204432
0.0227167
0.0252044
0.0279285
0.0309161
0.0341997
0.0378192
0.0418241
0.046276
0.0512534
0.0568583
0.0632254
0.0705366
0.079042
0.089096
0.101242
0.116304
0.135691
0.161704
0.0066381
0.00728001
0.00803801
0.00892169
0.00993797
0.0110894
0.0123794
0.0138131
0.0153976
0.0171415
0.0190554
0.0211523
0.0234477
0.0259602
0.0287123
0.031731
0.0350491
0.0387067
0.042753
0.04725
0.0522762
0.0579337
0.064357
0.0717274
0.0802942
0.0904097
0.102625
0.117732
0.137308
0.163293
0.00708339
0.00770622
0.00845265
0.00933066
0.0103444
0.0114956
0.0127878
0.0142258
0.0158166
0.0175688
0.0194929
0.0216017
0.023911
0.0264393
0.0292092
0.0322477
0.0355877
0.0392693
0.0433419
0.0478675
0.0529247
0.0586155
0.0650744
0.0724823
0.0810875
0.0912408
0.103501
0.118623
0.138338
0.164289
0.00729367
0.00790727
0.00864823
0.00952363
0.0105362
0.0116874
0.0129806
0.0144207
0.0160146
0.0177706
0.0196995
0.0218141
0.0241299
0.0266657
0.029444
0.0324919
0.0358423
0.0395353
0.0436204
0.0481597
0.0532317
0.0589384
0.0654145
0.0728405
0.081464
0.0916349
0.103918
0.11904
0.138816
0.164779
0.007296
0.00790961
0.00865054
0.00952591
0.0105384
0.0116896
0.0129828
0.0144229
0.0160166
0.0177726
0.0197014
0.0218159
0.0241316
0.0266673
0.0294455
0.0324933
0.0358436
0.0395365
0.0436216
0.0481607
0.0532328
0.0589396
0.0654159
0.072842
0.0814655
0.0916361
0.103919
0.119041
0.138817
0.164781
0.00709038
0.00771322
0.00845956
0.00933746
0.010351
0.0115022
0.0127942
0.0142321
0.0158227
0.0175747
0.0194985
0.0216072
0.0239161
0.0264442
0.0292137
0.032252
0.0355917
0.039273
0.0433455
0.0478709
0.0529282
0.0586192
0.0650785
0.0724868
0.0810919
0.0912444
0.103504
0.118626
0.138342
0.164294
0.0066497
0.00729162
0.00804948
0.00893296
0.00994905
0.0111003
0.01239
0.0138235
0.0154077
0.0171512
0.0190648
0.0211612
0.0234561
0.0259682
0.0287198
0.0317381
0.0350558
0.0387129
0.042759
0.0472558
0.0522822
0.0579399
0.0643637
0.0717346
0.0803013
0.0904159
0.10263
0.117738
0.137315
0.163302
0.00594995
0.00662114
0.0073974
0.00829009
0.00931049
0.0104622
0.0117487
0.0131755
0.0147498
0.0164803
0.0183779
0.0204554
0.0227283
0.0252154
0.0279389
0.0309259
0.034209
0.0378281
0.0418326
0.0462843
0.0512618
0.056867
0.0632346
0.0705462
0.0790516
0.0891051
0.10125
0.116314
0.135701
0.161716
0.00497218
0.00568272
0.00648494
0.00739116
0.00841816
0.00957108
0.0108537
0.0122717
0.0138327
0.0155457
0.0174214
0.0194729
0.0217156
0.0241681
0.0268527
0.0297962
0.0330311
0.0365972
0.0405436
0.0449321
0.0498409
0.055372
0.0616602
0.0688877
0.0773055
0.0872702
0.0993185
0.114298
0.13348
0.159428
0.0037044
0.0044639
0.00530007
0.00622481
0.00726138
0.00841689
0.00969544
0.0111032
0.0126479
0.0143388
0.016187
0.0182055
0.0204096
0.0228179
0.0254524
0.0283398
0.0315123
0.0350095
0.0388802
0.0431859
0.0480046
0.0534381
0.0596213
0.0667368
0.0750368
0.0848797
0.0967962
0.111642
0.130581
0.156398
0.00214279
0.00296
0.00383826
0.00478725
0.00583716
0.00699744
0.0082726
0.00966913
0.0111953
0.0128606
0.0146762
0.0166551
0.0188127
0.0211673
0.0237408
0.0265594
0.0296552
0.0330672
0.036844
0.0410464
0.0457522
0.0510628
0.057113
0.0640855
0.0722333
0.0819157
0.0936572
0.108313
0.126945
0.152595
0.000292196
0.00117462
0.00210306
0.00308272
0.00415068
0.00531894
0.00659247
0.00797814
0.00948458
0.0111216
0.0129005
0.0148344
0.0169384
0.0192307
0.0217328
0.0244707
0.0274757
0.0307866
0.0344511
0.0385294
0.0430987
0.0482598
0.0541468
0.0609424
0.0688993
0.0783766
0.0898928
0.104299
0.122559
0.147935
-0.00183505
-0.000880956
0.00010559
0.00112307
0.00221486
0.00339556
0.00467062
0.00604722
0.00753433
0.00914205
0.0108817
0.0127664
0.0148113
0.017034
0.0194558
0.022102
0.0250035
0.0281981
0.0317327
0.0356665
0.0400756
0.0450597
0.0507521
0.0573341
0.0650576
0.0742802
0.0855141
0.0996081
0.117454
0.142355
-0.0042199
-0.00318859
-0.00213641
-0.00107347
4.90175e-05
0.00124802
0.00252936
0.00390041
0.00537043
0.00694967
0.00864955
0.010483
0.012465
0.0146128
0.0169473
0.019493
0.0222799
0.0253448
0.0287334
0.0325035
0.0367296
0.0415096
0.0469749
0.0533047
0.0607483
0.069661
0.0805485
0.0942588
0.111618
0.135885
-0.00683938
-0.00572657
-0.00460165
-0.00348513
-0.00232376
-0.00109884
0.00019548
0.00156662
0.003024
0.00457798
0.00623992
0.0080226
0.00994065
0.0120111
0.0142538
0.0166927
0.0193567
0.0222811
0.0255099
0.0290988
0.0331198
0.0376681
0.0428715
0.0489055
0.056015
0.0645512
0.0750138
0.088255
0.105029
0.128565
-0.00966542
-0.0084688
-0.00726537
-0.00608795
-0.00487841
-0.00361748
-0.00230041
-0.000920243
0.000532387
0.00206781
0.00369729
0.00543336
0.00729024
0.00928434
0.0114348
0.0137643
0.0163002
0.0190758
0.0221325
0.025523
0.0293157
0.033601
0.0385017
0.0441867
0.050894
0.0589694
0.0689069
0.0815723
0.0976523
0.12042
-0.0126528
-0.0113707
-0.0100807
-0.00883903
-0.00757763
-0.00627403
-0.0049252
-0.00352596
-0.00206789
-0.000541285
0.00106453
0.00276155
0.00456331
0.0064854
0.00854592
0.0107662
0.0131716
0.0157932
0.0186697
0.0218501
0.0253989
0.0294015
0.0339745
0.0392794
0.0455438
0.053106
0.0624474
0.074447
0.0897193
0.111615
-0.0158783
-0.0145104
-0.0130676
-0.0117211
-0.0103932
-0.0090432
-0.00766309
-0.00624737
-0.0047876
-0.00327419
-0.00169676
-4.37449e-05
0.00169803
0.00354377
0.00551145
0.00762228
0.00990181
0.0123813
0.0150996
0.0181064
0.0214658
0.0252625
0.0296103
0.0346646
0.0406389
0.0478521
0.0567434
0.0681415
0.0824575
0.103011
-0.0201527
-0.0187974
-0.0171015
-0.0155473
-0.0140601
-0.012579
-0.0110951
-0.00960572
-0.00810384
-0.00657945
-0.00502052
-0.00341237
-0.00173768
2.40255e-05
0.00189679
0.00390888
0.00609354
0.00849023
0.0111462
0.0141188
0.0174785
0.0213136
0.0257371
0.0308973
0.0369814
0.04427
0.0531083
0.0641827
0.0774508
0.096281
0.0868264
0.0838181
0.0773045
0.0692545
0.0606777
0.0516881
0.0422536
0.0324193
0.0222675
0.0118852
0.00135684
-0.00923436
-0.0198082
-0.0302898
-0.0406105
-0.0507093
-0.0605291
-0.0700091
-0.0791074
-0.0877832
-0.0959975
-0.103716
-0.110908
-0.117549
-0.123622
-0.129146
-0.134187
-0.138693
-0.141875
-0.1422
0.062655
0.061768
0.0576951
0.0517396
0.0451749
0.0382335
0.0308543
0.0230356
0.0148264
0.00629411
-0.00248509
-0.0114278
-0.0204451
-0.0294457
-0.0383389
-0.0470368
-0.0554582
-0.0635369
-0.0712053
-0.0784093
-0.0851075
-0.0912708
-0.0968811
-0.10193
-0.106425
-0.11042
-0.114004
-0.117005
-0.11836
-0.116963
0.0496788
0.0493755
0.0462691
0.0413801
0.0359162
0.0301081
0.0238955
0.0172605
0.0102358
0.0028752
-0.00475589
-0.0125806
-0.0205126
-0.028459
-0.0363248
-0.0440163
-0.0514458
-0.0585352
-0.0652171
-0.0714385
-0.0771616
-0.0823637
-0.0870354
-0.0911784
-0.0948114
-0.097998
-0.100836
-0.103133
-0.103771
-0.101705
0.0404284
0.0402184
0.0377439
0.0337212
0.0291459
0.024219
0.0188876
0.0131349
0.00698853
0.000496535
-0.0062798
-0.0132663
-0.0203773
-0.0275191
-0.034594
-0.0415052
-0.0481616
-0.0544813
-0.0603963
-0.0658535
-0.0708168
-0.0752662
-0.0791962
-0.0826129
-0.0855384
-0.0880354
-0.0901987
-0.0918537
-0.0919858
-0.0897341
0.0337362
0.0333729
0.0312667
0.0278845
0.0239849
0.0197283
0.015073
0.0100062
0.00455118
-0.00124915
-0.00733776
-0.0136434
-0.0200821
-0.0265607
-0.0329808
-0.0392448
-0.0452606
-0.0509462
-0.0562337
-0.0610718
-0.0654268
-0.0692822
-0.0726367
-0.0755007
-0.0778994
-0.079892
-0.0815647
-0.0827715
-0.0826545
-0.0805149
0.0284914
0.0279265
0.0260864
0.0232127
0.0198673
0.0161558
0.0120512
0.00754576
0.00265985
-0.00256804
-0.00808425
-0.0138201
-0.0196937
-0.0256127
-0.0314798
-0.0371976
-0.0426742
-0.0478286
-0.0525941
-0.0569214
-0.0607793
-0.064154
-0.0670474
-0.0694731
-0.0714582
-0.0730564
-0.0743426
-0.0752138
-0.0749546
-0.0730438
0.024221
0.023466
0.0218294
0.0193721
0.0164729
0.0132157
0.00957259
0.00554023
0.00113672
-0.00360329
-0.0086294
-0.0138756
-0.0192621
-0.0246984
-0.0300885
-0.0353358
-0.0403499
-0.0450508
-0.0493738
-0.0532715
-0.0567151
-0.0596935
-0.062211
-0.0642841
-0.065941
-0.0672296
-0.0682242
-0.0688426
-0.0685155
-0.0668886
0.0205978
0.0196889
0.0182285
0.0161183
0.013595
0.0107202
0.00747234
0.00384768
-0.000137844
-0.00445294
-0.00905034
-0.0138669
-0.0188251
-0.0238368
-0.0288076
-0.0336427
-0.0382531
-0.0425605
-0.0465022
-0.050033
-0.0531264
-0.0557733
-0.0579805
-0.0597667
-0.0611606
-0.0622074
-0.0629738
-0.0633961
-0.0630432
-0.0617218
0.0174453
0.0164309
0.0151183
0.0132989
0.0110927
0.00854464
0.00564048
0.00237268
-0.00124484
-0.00518378
-0.00940003
-0.0138333
-0.018409
-0.0230412
-0.0276378
-0.032106
-0.0363587
-0.0403198
-0.0439284
-0.0471415
-0.0499348
-0.0523012
-0.0542493
-0.0557988
-0.0569785
-0.0578349
-0.0584225
-0.0586936
-0.0583441
-0.0573213
0.0146279
0.0135559
0.0123771
0.0108028
0.00886986
0.0066064
0.0040025
0.00105005
-0.00223962
-0.00584145
-0.00971452
-0.0138017
-0.0180311
-0.0223198
-0.0265781
-0.0307157
-0.0346476
-0.0382999
-0.0416137
-0.0445483
-0.0470813
-0.0492073
-0.0509363
-0.0522891
-0.0532947
-0.0539971
-0.0544429
-0.0546021
-0.054268
-0.0535187
0.0120603
0.0109737
0.0099189
0.00855161
0.00685721
0.00484329
0.00250512
-0.000165715
-0.00316046
-0.00645721
-0.0100182
-0.0137894
-0.0177023
-0.0216768
-0.0256261
-0.0294625
-0.0331035
-0.0364772
-0.0395272
-0.0422147
-0.044519
-0.0464364
-0.0479777
-0.0491646
-0.0500257
-0.0506024
-0.0509329
-0.0510068
-0.0506934
-0.0501857
0.00968356
0.00862122
0.0076854
0.00649619
0.00500535
0.00321155
0.00111021
-0.00130676
-0.00403406
-0.00705253
-0.0103274
-0.0138079
-0.0174289
-0.0211136
-0.0247782
-0.0283376
-0.031712
-0.0348319
-0.0376432
-0.0401088
-0.0422097
-0.0439436
-0.0453218
-0.0463663
-0.0471058
-0.0475782
-0.0478208
-0.0478259
-0.0475307
-0.0472252
0.00745651
0.0064488
0.00562512
0.00459154
0.00327664
0.00167927
-0.000209196
-0.00239612
-0.00487938
-0.00764234
-0.0106531
-0.0138643
-0.0172143
-0.0206296
-0.0240295
-0.0273321
-0.0304601
-0.0333465
-0.0359392
-0.0382033
-0.0401212
-0.0416913
-0.0429256
-0.0438455
-0.0444805
-0.0448669
-0.0450361
-0.0449864
-0.044707
-0.0445601
0.00535018
0.00442011
0.0037019
0.00280381
0.00164522
0.000222367
-0.00147319
-0.0034508
-0.0057102
-0.00823713
-0.0110027
-0.0139629
-0.0170596
-0.0202228
-0.0233751
-0.0264374
-0.0293355
-0.0320049
-0.0343956
-0.0364745
-0.0382253
-0.0396473
-0.0407527
-0.0415627
-0.042107
-0.0424189
-0.0425256
-0.042431
-0.0421599
-0.0421298
0.00334419
0.00250789
0.00188883
0.00110896
8.86612e-05
-0.00117742
-0.00269807
-0.00448402
-0.00653693
-0.00884469
-0.0113814
-0.0141064
-0.016965
-0.0198906
-0.0228092
-0.0256452
-0.0283269
-0.0307926
-0.0329945
-0.0349011
-0.0364974
-0.0377833
-0.038771
-0.0394817
-0.0399448
-0.0401904
-0.0402442
-0.0401127
-0.0398439
-0.0398882
0.001423
0.000689462
0.000162156
-0.000514015
-0.00141115
-0.00253497
-0.00389655
-0.00550625
-0.00736773
-0.00947101
-0.011793
-0.0142963
-0.0169296
-0.0196297
-0.0223263
-0.024947
-0.0274233
-0.0296959
-0.0317194
-0.0334638
-0.0349151
-0.036074
-0.0369527
-0.0375721
-0.0379601
-0.0381459
-0.0381535
-0.0379897
-0.0377174
-0.0377982
-0.00042542
-0.00105343
-0.00149672
-0.00208175
-0.0028691
-0.00386409
-0.00507955
-0.00652639
-0.00820947
-0.010121
-0.0122405
-0.0145335
-0.0169521
-0.0194368
-0.0219207
-0.024335
-0.0266143
-0.028702
-0.0305549
-0.0321447
-0.0334584
-0.034497
-0.0352728
-0.0358063
-0.0361239
-0.0362544
-0.03622
-0.0360279
-0.0357472
-0.0358317
-0.00221085
-0.00273607
-0.00310306
-0.00360793
-0.00429722
-0.00517523
-0.00625622
-0.00755195
-0.00906813
-0.0107989
-0.0127262
-0.0148185
-0.0170312
-0.0193084
-0.021587
-0.0238016
-0.0258901
-0.0277989
-0.0294869
-0.0309274
-0.0321084
-0.0330315
-0.0337086
-0.0341595
-0.0344108
-0.0344892
-0.034416
-0.0341985
-0.0339054
-0.0339672
-0.00394121
-0.00437149
-0.00467054
-0.00510539
-0.00570624
-0.00647769
-0.00743464
-0.00858975
-0.00994917
-0.0115087
-0.0132526
-0.015152
-0.0171656
-0.0192414
-0.0213199
-0.0233395
-0.0252415
-0.0269752
-0.0285017
-0.0297963
-0.0308479
-0.0316584
-0.0322397
-0.0326113
-0.0327982
-0.032827
-0.0327175
-0.0324775
-0.032169
-0.032188
-0.00562377
-0.00597097
-0.00621082
-0.00658557
-0.00710612
-0.00778018
-0.00862258
-0.00964638
-0.0108579
-0.0122544
-0.0138219
-0.0155346
-0.0173545
-0.019233
-0.0211148
-0.0229421
-0.0246596
-0.0262199
-0.0275867
-0.0287368
-0.0296605
-0.0303599
-0.0308471
-0.0311409
-0.0312653
-0.0312455
-0.0311024
-0.0308435
-0.0305189
-0.0304824
-0.00726489
-0.00754411
-0.00773355
-0.00805481
-0.00850385
-0.00909059
-0.00982731
-0.0107282
-0.0117997
-0.01304
-0.0144372
-0.0159679
-0.0175974
-0.019281
-0.0209674
-0.0226027
-0.0241359
-0.0255226
-0.0267293
-0.0277347
-0.0285304
-0.0291192
-0.0295131
-0.0297305
-0.0297937
-0.0297275
-0.029552
-0.0292777
-0.0289393
-0.028842
-0.00887078
-0.0090985
-0.00924464
-0.0095213
-0.00990934
-0.0104164
-0.0110557
-0.0118415
-0.0127801
-0.0138703
-0.0151018
-0.0164538
-0.0178947
-0.0193838
-0.020874
-0.0223159
-0.0236624
-0.0248731
-0.0259174
-0.0267762
-0.0274426
-0.0279202
-0.028221
-0.0283631
-0.0283669
-0.0282583
-0.0280538
-0.027767
-0.0274177
-0.0272621
-0.0104465
-0.0106413
-0.0107562
-0.0109928
-0.0113275
-0.0117627
-0.012314
-0.0129927
-0.0138051
-0.0147506
-0.0158201
-0.0169953
-0.0182477
-0.0195407
-0.0208317
-0.0220761
-0.0232314
-0.0242614
-0.0251388
-0.0258475
-0.0263822
-0.0267473
-0.0269552
-0.0270232
-0.0269714
-0.0268227
-0.0265965
-0.0263021
-0.025946
-0.0257403
-0.0119984
-0.0121772
-0.0122687
-0.0124735
-0.0127645
-0.0131375
-0.0136089
-0.0141884
-0.0148813
-0.015687
-0.0165975
-0.0175964
-0.0186587
-0.0197518
-0.0208381
-0.0218782
-0.0228351
-0.0236771
-0.0243814
-0.0249349
-0.0253343
-0.0255854
-0.0257005
-0.0256967
-0.0255931
-0.0254088
-0.0251652
-0.0248674
-0.024515
-0.0242769
-0.013534
-0.0137148
-0.0137884
-0.0139703
-0.0142236
-0.014545
-0.0149458
-0.0154345
-0.0160148
-0.0166856
-0.0174394
-0.0182617
-0.0191305
-0.0200178
-0.0208913
-0.0217177
-0.0224661
-0.0231106
-0.0236333
-0.024025
-0.024285
-0.0244203
-0.0244435
-0.0243709
-0.0242201
-0.0240089
-0.0237545
-0.0234649
-0.0231249
-0.0228746
-0.0150577
-0.0152474
-0.0153154
-0.0154828
-0.0157082
-0.0159866
-0.0163268
-0.0167339
-0.0172095
-0.0177509
-0.0183506
-0.0189952
-0.019666
-0.0203396
-0.0209897
-0.0215901
-0.0221171
-0.022552
-0.0228829
-0.0231052
-0.0232214
-0.0232399
-0.0231735
-0.023037
-0.0228462
-0.0226163
-0.0223615
-0.0220903
-0.0217719
-0.0215397
-0.0165824
-0.0167684
-0.0168381
-0.017004
-0.0172146
-0.0174628
-0.0177553
-0.0180937
-0.0184755
-0.0188954