/*--------------------------------*- C++ -*----------------------------------*\
  =========                 |
  \\      /  F ield         | OpenFOAM: The Open Source CFD Toolbox
   \\    /   O peration     | Website:  https://openfoam.org
    \\  /    A nd           | Version:  12
     \\/     M anipulation  |
\*---------------------------------------------------------------------------*/
FoamFile
{
    format      ascii;
    class       volScalarField;
    location    "20";
    object      pPrime2Mean;
}
// * * * * * * * * * * * * * * * * * * * * * * * * * * * * * * * * * * * * * //

dimensions      [0 4 -4 0 0 0 0];

internalField   nonuniform List<scalar> 
6750
(
0.0583226
0.0582222
0.0580854
0.0579647
0.0579038
0.0585203
0.0583963
0.0581993
0.0579639
0.0577246
0.0589743
0.0588189
0.0585597
0.0582241
0.0578657
0.0596789
0.0595122
0.0592314
0.0588621
0.0584675
0.0606045
0.0604522
0.0601947
0.0598521
0.059486
0.0616945
0.0615791
0.0613819
0.0611132
0.0608249
0.0628764
0.0628149
0.0627055
0.0625455
0.0623721
0.0640737
0.0640771
0.0640732
0.0640448
0.0640119
0.0652151
0.0652881
0.0653976
0.0655114
0.0656322
0.0662407
0.0663823
0.0666036
0.0668586
0.0671336
0.0671058
0.0673099
0.0676332
0.0680179
0.0684359
0.0677817
0.0680383
0.0684473
0.0689415
0.0694816
0.0682554
0.0685518
0.0690257
0.0696033
0.0702373
0.0685273
0.0688496
0.0693653
0.0699972
0.0706928
0.068609
0.0689429
0.0694771
0.0701338
0.070858
0.0685187
0.0688507
0.0693824
0.070036
0.0707569
0.068256
0.068573
0.0690807
0.0697034
0.0703891
0.0678044
0.0680921
0.0685529
0.0691153
0.0697325
0.0671553
0.0674002
0.0677915
0.068265
0.0687822
0.066311
0.066501
0.0668029
0.0671623
0.0675524
0.0652871
0.0654129
0.06561
0.0658366
0.0660801
0.0641146
0.0641709
0.0642547
0.0643384
0.0644258
0.0628404
0.0628268
0.0627968
0.062738
0.0626713
0.061526
0.0614478
0.0613128
0.0611231
0.0609167
0.0602439
0.0601123
0.0598906
0.0595935
0.0592738
0.0590712
0.0589036
0.0586229
0.0582536
0.0578583
0.0580809
0.0578999
0.0575974
0.0572031
0.0567818
0.05733
0.0571613
0.0568817
0.0565226
0.0561397
0.0568481
0.0567119
0.0564964
0.056239
0.055977
0.0566393
0.0565291
0.0563772
0.0562393
0.0561634
0.0578535
0.0573095
0.0562642
0.0548431
0.0530716
0.0509642
0.0485302
0.0457811
0.0427419
0.0394526
0.0359696
0.0323658
0.0287268
0.0251443
0.0217081
0.0184975
0.0155743
0.0129783
0.0107259
0.00881303
0.00721916
0.00591304
0.00485811
0.00401713
0.0033553
0.00284082
0.00244808
0.0021562
0.00194961
0.00183045
0.0577689
0.0568829
0.0556159
0.0540233
0.0521121
0.0498922
0.0473804
0.044602
0.0415882
0.0383808
0.0350332
0.0316097
0.0281818
0.0248236
0.0216056
0.0185895
0.0158242
0.0133416
0.0111578
0.00927274
0.00767368
0.00633842
0.00523924
0.00434629
0.0036304
0.00306571
0.00262854
0.00229707
0.00205182
0.00188085
0.0575157
0.0564217
0.0549901
0.0532664
0.0512514
0.0489581
0.0464052
0.0436204
0.0406389
0.0375048
0.0342705
0.0309945
0.0277383
0.0245626
0.0215235
0.0186692
0.0160373
0.0136539
0.0115331
0.00967766
0.00808038
0.00672629
0.00559496
0.00466287
0.00390542
0.00329882
0.00282086
0.00244898
0.00216251
0.00194496
0.0571866
0.0559598
0.054401
0.0525782
0.0505002
0.0481732
0.0456133
0.0428475
0.0399117
0.0368498
0.0337118
0.0305514
0.0274232
0.0243795
0.0214681
0.0187294
0.0161952
0.0138876
0.0118196
0.00999473
0.00840847
0.00704968
0.00590213
0.00494621
0.00416035
0.00352221
0.00300921
0.0025999
0.00227215
0.0020226
0.0568344
0.0555063
0.053847
0.0519484
0.0498316
0.047494
0.0449488
0.0422195
0.0393393
0.0363496
0.0332967
0.03023
0.0271994
0.0242524
0.0214323
0.0187763
0.0163132
0.014064
0.0120403
0.0102458
0.0086768
0.00732341
0.00617121
0.00520249
0.00439726
0.00373412
0.00319096
0.00274574
0.00238407
0.00210768
0.0565133
0.0551026
0.0533679
0.0514127
0.049268
0.0469327
0.0444122
0.0417264
0.0389037
0.0359809
0.0330003
0.0300075
0.0270489
0.02417
0.0214126
0.0188129
0.0163997
0.0141935
0.0122058
0.0104396
0.00889075
0.00754905
0.00640005
0.0054263
0.00460837
0.00392582
0.00335666
0.00288099
0.00249059
0.00219187
0.0562617
0.0547825
0.0529882
0.0509921
0.0488278
0.0464992
0.0440067
0.0413638
0.0385942
0.0357293
0.0328068
0.0298688
0.02696
0.024125
0.0214063
0.0188413
0.01646
0.0142834
0.0123232
0.0105817
0.00905336
0.00772662
0.00658567
0.00561221
0.00478676
0.00408965
0.00349976
0.00299937
0.00258492
0.00226734
0.0561108
0.0545725
0.0527292
0.0507
0.0485248
0.0462024
0.043736
0.0411309
0.0384058
0.0355866
0.0327064
0.0298047
0.0269251
0.0241128
0.0214121
0.0188629
0.0164973
0.014338
0.0123968
0.0106751
0.00916576
0.007855
0.00672486
0.00575553
0.00492724
0.00421917
0.0036135
0.00309455
0.00266037
0.00232668
0.0560887
0.0544967
0.052609
0.0505499
0.0483659
0.0460492
0.0436036
0.0410286
0.0383366
0.0355486
0.032694
0.0298098
0.0269396
0.0241302
0.0214287
0.0188783
0.016514
0.0143601
0.012429
0.0107214
0.00922807
0.0079327
0.00681478
0.00585251
0.00502536
0.00431161
0.00369529
0.00316148
0.00271093
0.00236315
0.0562232
0.0545794
0.0526466
0.0505567
0.0483613
0.0460489
0.0436155
0.0410597
0.0383873
0.0356145
0.0327673
0.0298815
0.0270011
0.0241756
0.0214556
0.018888
0.0165111
0.0143511
0.0124212
0.0107211
0.00923978
0.00795814
0.00685294
0.0059002
0.00507699
0.00436276
0.0037401
0.00319456
0.00273031
0.00237036
0.0565432
0.0548459
0.0528634
0.0507358
0.0485223
0.0462081
0.0437785
0.041229
0.0385608
0.0357858
0.032927
0.0300196
0.0271093
0.0242487
0.0214926
0.0188922
0.0164891
0.0143117
0.0123736
0.0106741
0.00919997
0.00792969
0.0068371
0.00589554
0.00507994
0.00436903
0.00374317
0.00318855
0.00271287
0.00234257
0.057081
0.0553243
0.053283
0.0511069
0.0488653
0.0465391
0.0441013
0.0415439
0.0388629
0.0360664
0.0331756
0.0302259
0.027265
0.0243498
0.02154
0.018891
0.016448
0.0142414
0.0122858
0.0105794
0.00910743
0.00784571
0.00676521
0.00583629
0.00503084
0.00432651
0.00369965
0.00313809
0.00265339
0.00227488
0.0578738
0.0560482
0.0539357
0.0516966
0.0494145
0.0470588
0.0445977
0.0420154
0.0393024
0.0364633
0.0335183
0.0305038
0.0274706
0.0244805
0.0215984
0.0188845
0.0163874
0.0141397
0.0121566
0.0104359
0.00896076
0.00770454
0.00663519
0.00571956
0.00492584
0.00422882
0.00360414
0.00303823
0.00254751
0.0021634
0.0589676
0.0570586
0.0548583
0.0525363
0.0501939
0.0477901
0.0452873
0.0426591
0.0398918
0.0369864
0.0339625
0.0308585
0.0277295
0.0246427
0.0216688
0.0188728
0.0163067
0.0140053
0.0119847
0.010242
0.0087584
0.00750455
0.00644493
0.00554219
0.00476157
0.00407326
0.00345262
0.0028853
0.00239238
0.0020058
0.0604182
0.0584069
0.0560976
0.053668
0.0512417
0.0487659
0.046196
0.0434971
0.0406487
0.0376492
0.0345181
0.0312969
0.0280461
0.0248392
0.0217526
0.018856
0.016205
0.0138368
0.0117681
0.00999565
0.00849841
0.00724365
0.00619188
0.00530174
0.0045343
0.00385615
0.00324225
0.00267728
0.00218711
0.0018022
0.0622968
0.0601598
0.0577162
0.0551488
0.0526096
0.0500314
0.0473625
0.0445605
0.0415971
0.0384692
0.0351975
0.0318275
0.0284261
0.0250733
0.0218511
0.0188341
0.0160814
0.0136326
0.0115052
0.00969473
0.00817817
0.0069187
0.00587257
0.00499452
0.00424073
0.00357496
0.00297166
0.00241434
0.00193369
0.00155666
0.0646964
0.0624059
0.0597992
0.0570568
0.0543669
0.0516474
0.0488395
0.04589
0.0427678
0.0394688
0.0360162
0.0324608
0.0288762
0.0253487
0.0219658
0.0188069
0.0159349
0.0133915
0.0111941
0.00933712
0.00779464
0.00652605
0.00548299
0.00461607
0.00387818
0.00322879
0.00264197
0.00210031
0.00163903
0.00127931
0.0677424
0.0652661
0.0624608
0.0594945
0.0566048
0.0536929
0.0506902
0.0475366
0.0441996
0.040676
0.0369935
0.0332094
0.0294038
0.025669
0.0220977
0.018774
0.0157642
0.0131115
0.0108329
0.00892032
0.007345
0.0060626
0.00502053
0.00416496
0.00344573
0.00281968
0.00225881
0.00174523
0.00131825
0.000990509
0.0716071
0.068903
0.065852
0.062596
0.0594421
0.0562677
0.052995
0.0495633
0.0459401
0.0421254
0.0381533
0.0340883
0.0300171
0.0260376
0.0222477
0.018735
0.0155684
0.0127912
0.0104191
0.00844164
0.00682684
0.00552679
0.004485
0.00364318
0.00294836
0.00235595
0.00183661
0.00137104
0.00100093
0.000727178
0.0765308
0.0735372
0.0701745
0.0665381
0.0630296
0.0594944
0.055855
0.0520484
0.0480474
0.0438581
0.0395228
0.0351137
0.0307244
0.0264581
0.0224165
0.0186897
0.0153465
0.0124292
0.00995109
0.00789946
0.00623939
0.00492
0.00388112
0.00306061
0.00240254
0.00186083
0.00140705
0.0010214
0.000742147
0.000555275
0.0828502
0.0794737
0.0757062
0.0715641
0.0675653
0.0635366
0.0593976
0.0550896
0.0505926
0.0459227
0.0411325
0.0363032
0.0315347
0.0269342
0.0226054
0.0186377
0.0150978
0.0120245
0.00942851
0.00729441
0.00558533
0.00424835
0.00322064
0.00243708
0.00183875
0.001379
0.00102973
0.000777008
0.000642218
0.000593564
0.0910361
0.0871353
0.0828305
0.0779973
0.0733203
0.0686117
0.063791
0.0588103
0.0536618
0.0483759
0.0430176
0.0376769
0.0324585
0.0274708
0.0228158
0.0185788
0.0148212
0.0115769
0.00885243
0.00663025
0.00487247
0.00352581
0.00252693
0.00180947
0.00131277
0.00099045
0.00081578
0.000782495
0.000877849
0.00105331
0.101726
0.0970958
0.0920716
0.0862779
0.0806583
0.0750077
0.0692494
0.0633626
0.0573584
0.0512848
0.0452193
0.0392584
0.0335081
0.0280733
0.0230491
0.0185124
0.014516
0.0110867
0.00822647
0.00591544
0.00411633
0.00277839
0.0018416
0.00124218
0.000920653
0.000832365
0.000951638
0.00128397
0.00174341
0.00228545
0.115723
0.110102
0.104102
0.0969839
0.0900519
0.0830851
0.0760384
0.0689328
0.0618071
0.0547288
0.0477854
0.0410747
0.0346968
0.0287465
0.0233056
0.0184369
0.0141811
0.0105558
0.0075573
0.00516469
0.00334365
0.00205035
0.00123457
0.000842635
0.000822754
0.00113266
0.00174665
0.00267764
0.00369758
0.00481018
0.13396
0.127022
0.119747
0.110834
0.102084
0.0932786
0.0844711
0.075737
0.0671504
0.0587975
0.0507685
0.0431533
0.0360366
0.0294931
0.0235829
0.0183483
0.0138131
0.00998387
0.00685184
0.0043971
0.00259268
0.0014086
0.000814176
0.000777736
0.00126565
0.00224086
0.00366317
0.00553284
0.00737377
0.00930113
0.157399
0.14874
0.139814
0.128511
0.11727
0.105982
0.0948305
0.0839721
0.0735214
0.0635767
0.0542206
0.0455225
0.0375394
0.030314
0.0238743
0.0182348
0.013398
0.00935815
0.0061039
0.00362168
0.00189991
0.000932968
0.000722787
0.00127434
0.00258395
0.00461838
0.00729745
0.0105536
0.0135248
0.0165465
0.186542
0.175647
0.164507
0.150146
0.135733
0.121339
0.107287
0.0938284
0.0811152
0.0692499
0.0582996
0.0483056
0.0392885
0.0312518
0.0241855
0.0180718
0.0128909
0.0086264
0.00526883
0.00281914
0.0012917
0.000716584
0.00113833
0.00260538
0.00514569
0.00872084
0.0131842
0.0183372
0.0228776
0.0273327
0.223379
0.208743
0.194001
0.17606
0.158152
0.140383
0.123135
0.106713
0.0913103
0.0770607
0.0640462
0.0523053
0.041842
0.0326345
0.0246462
0.0178364
0.0121708
0.00762944
0.0042114
0.00193632
0.000842873
0.000984263
0.00241877
0.00519308
0.00931699
0.0147235
0.0212311
0.02862
0.0356433
0.0426182
0.280558
0.261668
0.242593
0.220477
0.198172
0.175646
0.153419
0.131993
0.111756
0.0930127
0.0759626
0.060708
0.0472746
0.0356365
0.0257436
0.0175444
0.0110054
0.00611952
0.00291269
0.00143535
0.0017449
0.00388181
0.0078396
0.0135358
0.0207924
0.0293074
0.0386899
0.0487175
0.0576093
0.0666911
0.458666
0.424767
0.386317
0.347228
0.308233
0.269322
0.231362
0.195182
0.16146
0.130724
0.10331
0.0793631
0.0588826
0.0417807
0.0279439
0.0172854
0.00978206
0.0054942
0.00455042
0.0071184
0.0133558
0.0233461
0.0370366
0.0541916
0.0743786
0.0969708
0.121179
0.146811
0.173257
0.197427
0.0578572
0.0575857
0.0573189
0.0570856
0.0568956
0.0567588
0.0566957
0.0567305
0.0568893
0.0572006
0.0576955
0.0584099
0.0593854
0.0606723
0.0623321
0.0644417
0.0671004
0.0704429
0.0746565
0.0800051
0.0868628
0.0957558
0.107395
0.122654
0.142533
0.168109
0.200531
0.243275
0.308006
0.496456
0.0575299
0.0573425
0.0571837
0.0570681
0.0570239
0.0570618
0.0571966
0.0574471
0.0578355
0.0583884
0.0591369
0.0601185
0.0613781
0.0629705
0.0649637
0.0674435
0.0705226
0.0743533
0.0791453
0.0851906
0.0928993
0.102841
0.115778
0.132633
0.154453
0.182495
0.218779
0.267494
0.337831
0.53709
0.0576834
0.0576827
0.0577115
0.057774
0.0579015
0.0581122
0.0584267
0.0588671
0.0594583
0.0602288
0.0612118
0.0624472
0.0639828
0.0658782
0.0682069
0.0710638
0.0745746
0.0789077
0.084294
0.091051
0.09962
0.11061
0.124825
0.143224
0.166875
0.197205
0.237019
0.291171
0.365433
0.582135
0.0583525
0.0585425
0.0587596
0.0590065
0.0593193
0.0597202
0.0602319
0.0608793
0.0616897
0.0626942
0.0639292
0.0654373
0.0672705
0.0694923
0.0721829
0.075445
0.0794147
0.0842741
0.0902674
0.0977275
0.107111
0.11904
0.13432
0.153886
0.178751
0.21048
0.25293
0.31264
0.389602
0.630521
0.05946
0.0598222
0.060219
0.0606493
0.0611516
0.0617516
0.0624748
0.0633476
0.0643992
0.0656631
0.067178
0.06899
0.0711549
0.073741
0.0768343
0.0805457
0.0850213
0.0904534
0.0970966
0.105292
0.115499
0.128337
0.144587
0.165117
0.190835
0.223431
0.268041
0.333847
0.411478
0.68172
0.0609019
0.0614151
0.0619785
0.0625874
0.0632795
0.0640826
0.0650247
0.0661341
0.067442
0.0689835
0.0707999
0.0729397
0.0754624
0.0784404
0.0819651
0.0861545
0.091162
0.0971877
0.104491
0.113413
0.124406
0.138067
0.155132
0.176365
0.202539
0.235461
0.281862
0.355051
0.431208
0.737659
0.0625621
0.0632064
0.0639211
0.0647004
0.0655787
0.0665847
0.0677478
0.069098
0.0706685
0.0724962
0.0746244
0.0771041
0.0799969
0.0833791
0.0873466
0.0920225
0.0975655
0.104179
0.112122
0.121729
0.133437
0.147811
0.16552
0.187202
0.213459
0.246212
0.294082
0.376704
0.449346
0.801038
0.0643212
0.0650782
0.065928
0.0668659
0.0679225
0.0691258
0.0705056
0.0720934
0.0739236
0.0760351
0.0784727
0.0812894
0.0845486
0.0883292
0.0927306
0.0978792
0.103936
0.111104
0.119639
0.129865
0.142197
0.157162
0.175359
0.197274
0.223308
0.255466
0.304454
0.399232
0.466646
0.874755
0.0660622
0.0669157
0.0678841
0.068966
0.0701881
0.0715772
0.0731626
0.0749765
0.0770541
0.0794356
0.0821671
0.085303
0.0889081
0.0930632
0.0978697
0.103455
0.109981
0.117647
0.126704
0.137464
0.150319
0.165762
0.18432
0.206312
0.231896
0.263128
0.312799
0.422937
0.48403
0.961144
0.0676794
0.0686145
0.0696853
0.0708942
0.0722648
0.0738222
0.0755951
0.0776155
0.0799188
0.0825459
0.0855436
0.0889672
0.0928831
0.0973728
0.102538
0.108507
0.115439
0.12353
0.133025
0.144224
0.157502
0.173322
0.192148
0.21412
0.239116
0.269213
0.319052
0.447877
0.502452
1.06084
0.0690868
0.070089
0.0712454
0.0725623
0.0740606
0.0757638
0.0776996
0.0798991
0.0823979
0.0852368
0.0884631
0.0921327
0.0963127
0.101085
0.106551
0.112837
0.120101
0.128535
0.138378
0.149922
0.163526
0.179636
0.198667
0.220577
0.244926
0.273818
0.323298
0.473732
0.522591
1.1714
0.070221
0.0712764
0.0725012
0.0739054
0.0755075
0.0773298
0.0793984
0.0817439
0.0844013
0.0874114
0.0908218
0.0946886
0.099079
0.104075
0.109776
0.116308
0.123826
0.13252
0.142624
0.15442
0.168262
0.184587
0.203777
0.22562
0.249334
0.277086
0.325773
0.499629
0.544432
1.286
0.0710447
0.0721391
0.0734148
0.0748845
0.0765646
0.078476
0.080644
0.0830982
0.0858736
0.0890107
0.0925572
0.096569
0.101113
0.10627
0.11214
0.118847
0.126544
0.13542
0.145702
0.15767
0.171671
0.188143
0.207455
0.229242
0.25239
0.279175
0.326825
0.524088
0.566913
1.39374
0.0715448
0.0726647
0.0739738
0.0754864
0.0772175
0.0791871
0.0814194
0.083944
0.0867956
0.0900148
0.0936489
0.0977535
0.102395
0.107654
0.113629
0.120445
0.128252
0.137238
0.147629
0.159697
0.173791
0.190352
0.209748
0.231499
0.254199
0.280264
0.326856
0.544637
0.587376
1.48113
0.0717309
0.0728631
0.0741884
0.0757218
0.0774774
0.0794746
0.0817373
0.0842951
0.0871827
0.0904406
0.0941158
0.0982634
0.102949
0.108255
0.114279
0.121144
0.129003
0.138041
0.148481
0.160596
0.174733
0.191336
0.210781
0.232525
0.254981
0.280664
0.326453
0.556449
0.600295
1.53092
0.0716282
0.0727608
0.0740867
0.0756204
0.0773759
0.0793725
0.0816346
0.0841914
0.0870778
0.0903342
0.0940073
0.0981523
0.102835
0.108138
0.11416
0.121024
0.128883
0.137922
0.148365
0.160484
0.174627
0.19124
0.210696
0.232451
0.254916
0.280611
0.326337
0.556232
0.600138
1.53283
0.0712362
0.0723577
0.0736684
0.0751823
0.0769136
0.0788823
0.0811129
0.083635
0.0864834
0.0896983
0.0933267
0.0974239
0.102057
0.107308
0.113278
0.120091
0.127899
0.13689
0.147289
0.15937
0.173484
0.190071
0.209501
0.231285
0.254011
0.280109
0.32653
0.54406
0.586966
1.4866
0.070532
0.0716293
0.0729083
0.0743812
0.0760631
0.0779748
0.0801414
0.0825927
0.0853637
0.0884945
0.0920324
0.0960334
0.100565
0.105711
0.111573
0.118276
0.125976
0.13486
0.145158
0.157148
0.171182
0.187698
0.207063
0.228901
0.252094
0.278933
0.326357
0.523344
0.566397
1.40207
0.0695111
0.0705707
0.0718009
0.073211
0.0748178
0.0766428
0.078712
0.0810557
0.0837087
0.0867116
0.0901117
0.0939657
0.0983419
0.103324
0.109016
0.115544
0.123066
0.131773
0.141899
0.153728
0.167617
0.184
0.203258
0.225164
0.248947
0.27678
0.325265
0.498944
0.543966
1.2964
0.0681907
0.0691989
0.0703631
0.0716891
0.0731956
0.0749051
0.0768446
0.0790448
0.0815407
0.0843728
0.0875888
0.0912449
0.09541
0.100169
0.105625
0.111908
0.119177
0.127628
0.1375
0.149085
0.162746
0.178925
0.198031
0.220015
0.244462
0.273477
0.322863
0.473302
0.522303
1.18315
0.0666126
0.0675559
0.0686372
0.0698587
0.0712413
0.0728091
0.0745897
0.0766143
0.0789177
0.0815403
0.0845291
0.0879402
0.0918419
0.0963185
0.101475
0.107442
0.114381
0.122492
0.13202
0.143267
0.156607
0.172499
0.191401
0.213458
0.238588
0.268875
0.318801
0.447842
0.502446
1.07333
0.064843
0.0657079
0.0666902
0.0677886
0.0690268
0.0704305
0.0720281
0.0738506
0.0759326
0.0783134
0.0810393
0.0841653
0.0877584
0.0919022
0.0967009
0.102286
0.10882
0.116507
0.125599
0.136408
0.149324
0.164835
0.183466
0.205554
0.231319
0.262836
0.312823
0.423367
0.484391
0.973897
0.06297
0.0637429
0.0646109
0.0655697
0.0666469
0.0678694
0.069266
0.0708675
0.0727072
0.0748233
0.0772602
0.0800713
0.0833218
0.087093
0.0914878
0.0966359
0.102701
0.10989
0.118457
0.128728
0.141114
0.156138
0.174402
0.19643
0.222702
0.255263
0.304811
0.400137
0.46745
0.887459
0.0610995
0.0617654
0.062504
0.0633093
0.0642131
0.0652431
0.0664279
0.067797
0.0693827
0.0712211
0.0733546
0.075834
0.0787217
0.0820963
0.0860568
0.0907311
0.0962812
0.102912
0.110883
0.120527
0.132278
0.146697
0.164469
0.186284
0.212846
0.246136
0.294787
0.378052
0.450667
0.813548
0.0593479
0.0598897
0.0604832
0.0611236
0.061846
0.0626776
0.0636461
0.0647794
0.0661079
0.0676658
0.0694931
0.0716375
0.0741581
0.0771291
0.080646
0.0848315
0.0898427
0.0958815
0.103206
0.112155
0.123178
0.136874
0.154001
0.175393
0.201945
0.23554
0.282904
0.3568
0.43313
0.749984
0.0578343
0.058232
0.058665
0.0591315
0.0596679
0.0602998
0.0610525
0.0619524
0.0630282
0.0643121
0.0658414
0.0676608
0.0698251
0.0724044
0.0754885
0.0791933
0.0836694
0.0891103
0.0957686
0.103982
0.114209
0.127075
0.143395
0.164117
0.190287
0.223678
0.269385
0.335961
0.414088
0.69399
0.0566738
0.0569058
0.0571639
0.0574498
0.057798
0.058231
0.0587721
0.0594463
0.0602803
0.0613045
0.0625536
0.0640688
0.0659011
0.0681155
0.0707956
0.0740497
0.0780183
0.0828842
0.088889
0.0963626
0.105763
0.117725
0.133093
0.152892
0.178276
0.2109
0.254539
0.315102
0.39299
0.642947
0.0559687
0.0560162
0.0560893
0.0561902
0.05635
0.0565882
0.0569266
0.0573878
0.0579966
0.0587806
0.0597724
0.0610107
0.0625431
0.0644298
0.0667483
0.0695979
0.0731084
0.0774493
0.0828482
0.089622
0.0982173
0.10926
0.123597
0.142281
0.166514
0.197806
0.238862
0.293983
0.369678
0.594947
0.0557963
0.0556622
0.0555468
0.055464
0.0554433
0.055498
0.0556449
0.0559036
0.0562968
0.0568511
0.0575978
0.0585744
0.0598264
0.0614098
0.0633953
0.0658719
0.0689554
0.0727993
0.0776126
0.0836893
0.0914475
0.101477
0.114581
0.131774
0.15421
0.183221
0.220742
0.270547
0.342749
0.550229
0.0561387
0.0559145
0.0556756
0.0554593
0.0552776
0.055142
0.0550741
0.0550992
0.0552449
0.055541
0.0560197
0.056718
0.0576793
0.0589559
0.0606112
0.0627233
0.0653926
0.0687557
0.0730041
0.0784061
0.0853437
0.0943619
0.106211
0.121847
0.142347
0.168853
0.202477
0.246435
0.31335
0.509835
0.471887
0.437394
0.397802
0.357257
0.316751
0.276404
0.23714
0.199822
0.165142
0.133627
0.105604
0.0812013
0.0603992
0.0430912
0.0291479
0.0184697
0.0110242
0.0068674
0.00612442
0.00895915
0.0155234
0.0258887
0.0399808
0.0575312
0.0780651
0.100906
0.125222
0.150797
0.177001
0.200892
0.28614
0.267391
0.248085
0.225349
0.202317
0.179083
0.156223
0.134266
0.113608
0.0945469
0.0772659
0.0618515
0.0483141
0.0366152
0.0266939
0.0184902
0.0119629
0.00709643
0.00391
0.002448
0.00276238
0.00488918
0.00881819
0.0144634
0.0216435
0.0300505
0.039296
0.0491721
0.0578144
0.0667755
0.226685
0.212288
0.197572
0.179382
0.161088
0.142902
0.125255
0.108485
0.0927986
0.0783309
0.0651566
0.0533041
0.0427664
0.0335119
0.0254949
0.0186661
0.0129823
0.00841292
0.00494621
0.00259106
0.00137743
0.00135387
0.0025795
0.0051078
0.00896096
0.0140882
0.0203323
0.0275048
0.0343274
0.0412465
0.188505
0.177744
0.166618
0.152103
0.137478
0.122872
0.108628
0.0950088
0.0821675
0.0702056
0.0591863
0.0491457
0.0400996
0.0320466
0.0249719
0.018852
0.0136599
0.0093701
0.00596255
0.00342828
0.00177552
0.00103534
0.00126192
0.00252021
0.0048564
0.00824666
0.0125532
0.0175841
0.0220618
0.02652
0.158153
0.149546
0.140595
0.129212
0.11791
0.106596
0.0954442
0.0845978
0.0741631
0.0642335
0.0548905
0.0462039
0.0382313
0.0310157
0.0245844
0.0189489
0.0141067
0.0100447
0.0067429
0.00418032
0.00234267
0.00122959
0.000857402
0.00125165
0.00242842
0.00436614
0.00698339
0.0101997
0.0131643
0.0161849
0.133806
0.126885
0.11958
0.110652
0.101939
0.0932305
0.0845462
0.0759391
0.0674673
0.0592084
0.0512516
0.0436896
0.0366113
0.0300951
0.0242027
0.0189755
0.014434
0.0105794
0.00739741
0.00486467
0.0029553
0.001647
0.000923085
0.000769039
0.001166
0.00208464
0.00348245
0.00534667
0.00720054
0.00913203
0.114956
0.109355
0.103349
0.096265
0.0894261
0.0826091
0.0757421
0.0688215
0.0618659
0.0549309
0.0481
0.041473
0.0351551
0.029246
0.0238303
0.0189712
0.0147073
0.0110533
0.00800374
0.005538
0.00362613
0.00223279
0.00131901
0.000842292
0.000759032
0.00103076
0.00163072
0.0025665
0.00361134
0.00474979
0.100572
0.0959785
0.0909754
0.0852471
0.0797424
0.0742582
0.068696
0.0630151
0.0572065
0.0513037
0.0453772
0.0395231
0.033851
0.0284708
0.0234804
0.0189576
0.0149544
0.011497
0.00858837
0.00621235
0.00433811
0.00292308
0.00191549
0.00125773
0.000893335
0.000778106
0.000885608
0.00122044
0.0017026
0.00227618
0.0896476
0.0857908
0.0815252
0.0767707
0.0722148
0.0676724
0.0630471
0.0582754
0.0533315
0.048231
0.043029
0.0378127
0.0326885
0.0277688
0.0231581
0.0189424
0.0151831
0.0119152
0.0091487
0.0068717
0.00505398
0.00364988
0.00260201
0.00184692
0.00132367
0.000983697
0.000798673
0.000761982
0.000867962
0.00106389
0.0813089
0.0779748
0.0742545
0.070201
0.0663209
0.0624517
0.0585009
0.0543978
0.0501067
0.0456293
0.0410071
0.036316
0.0316559
0.0271364
0.0228634
0.0189267
0.0153933
0.0123042
0.00967475
0.00749673
0.00574142
0.00436312
0.00330346
0.00249828
0.00188644
0.00141738
0.00105987
0.000798023
0.000660561
0.000616577
0.0748844
0.0719267
0.0686131
0.0650638
0.0616722
0.0582893
0.0548297
0.0512214
0.047424
0.0434302
0.0392705
0.0350107
0.0307421
0.0265692
0.022595
0.0189098
0.0155829
0.0126591
0.0101574
0.00807272
0.00637863
0.00503115
0.00397367
0.00314395
0.00248263
0.00193845
0.0014782
0.00107985
0.000787526
0.000591869
0.0698844
0.0672069
0.0642035
0.0610315
0.0579921
0.0549621
0.0518616
0.0486207
0.0451964
0.0415765
0.0377842
0.0338767
0.0299372
0.0260626
0.022351
0.0188903
0.0157498
0.0129759
0.0105903
0.00859053
0.00695277
0.00563577
0.00458618
0.00374486
0.00305478
0.00246546
0.00194108
0.00146078
0.00107066
0.00077853
0.0659648
0.0635026
0.0607405
0.0578541
0.0550741
0.0523043
0.0494669
0.0464972
0.0433528
0.04002
0.036518
0.0328972
0.0292327
0.0256131
0.02213
0.0188672
0.0158925
0.0132526
0.0109704
0.00904574
0.0074576
0.00616792
0.00512698
0.00427947
0.00357071
0.00295111
0.00238725
0.00185866
0.00140823
0.00105639
0.0628822
0.0605918
0.0580227
0.055357
0.0527735
0.0501915
0.047545
0.0447719
0.041834
0.0387197
0.0354458
0.0320572
0.0286208
0.0252171
0.0219305
0.0188401
0.0160109
0.0134887
0.0112971
0.00943755
0.00789167
0.00662446
0.00558969
0.00473624
0.00401241
0.00337218
0.00278452
0.0022293
0.00174453
0.00135871
0.0604611
0.0583129
0.0559028
0.0534093
0.050973
0.0485257
0.0460126
0.0433785
0.0405906
0.0376409
0.0345453
0.0313434
0.0280946
0.0248715
0.0217519
0.0188094
0.0161059
0.0136856
0.011572
0.00976784
0.00825666
0.00700618
0.00597392
0.00511284
0.00437513
0.00372021
0.00311838
0.00255082
0.00205009
0.0016487
0.0585745
0.0565459
0.0542671
0.0519077
0.0495795
0.0472264
0.0448016
0.0422624
0.0395817
0.0367549
0.0337973
0.0307437
0.0276471
0.0245731
0.0215932
0.0187758
0.0161793
0.0138458
0.0117982
0.0100399
0.00855588
0.00731654
0.00628276
0.00541165
0.00466108
0.0039949
0.0033851
0.0028147
0.0023105
0.00190637
0.0571278
0.0551992
0.0530263
0.0507694
0.0485176
0.0462265
0.0438577
0.0413804
0.0387745
0.0360379
0.0331849
0.030247
0.0272716
0.0243186
0.0214536
0.0187403
0.0162332
0.0139723
0.0119793
0.0102575
0.00879355
0.00756006
0.00652139
0.00563901
0.00487608
0.00420088
0.00358727
0.00301985
0.00251997
0.00212085
0.0560472
0.0542011
0.0521115
0.0499298
0.0477293
0.0454761
0.04314
0.0407003
0.0381438
0.0354702
0.0326936
0.0298429
0.0269617
0.0241047
0.0213323
0.0187037
0.0162698
0.0140679
0.0121184
0.0104246
0.0089739
0.00774162
0.00669574
0.00580198
0.00502717
0.00434468
0.00372977
0.00316854
0.00267722
0.00228691
0.0552732
0.0534945
0.05147
0.0493416
0.0471723
0.0449392
0.042619
0.0401984
0.0376699
0.035036
0.032311
0.0295227
0.0267115
0.0239281
0.0212283
0.0186668
0.0162909
0.0141351
0.0122187
0.0105444
0.00910078
0.00786571
0.0068107
0.00590531
0.00512032
0.0044322
0.0038173
0.00326391
0.00278339
0.00240367
0.0547574
0.053034
0.0510608
0.0489704
0.0468177
0.0445915
0.0422739
0.0398568
0.037338
0.0347229
0.0320273
0.0292788
0.026516
0.0237861
0.0211405
0.0186298
0.0162976
0.0141759
0.0122823
0.0106195
0.00917729
0.00793589
0.0068703
0.00595368
0.00515985
0.00446637
0.00385421
0.00330987
0.00284138
0.0024734
0.0544604
0.0527843
0.0508527
0.048791
0.0466466
0.0444166
0.04209
0.0396626
0.0371367
0.0345214
0.0318351
0.029106
0.0263716
0.0236764
0.0210679
0.0185927
0.0162906
0.0141912
0.0123107
0.0106518
0.00920549
0.00795466
0.00687735
0.00594991
0.00514923
0.00445341
0.00384547
0.00331123
0.00285571
0.0025002
0.0543483
0.0527172
0.0508224
0.0487837
0.0466441
0.0444025
0.0420571
0.0396067
0.0370582
0.0344251
0.0317293
0.0290005
0.0262759
0.0235976
0.0210098
0.0185551
0.0162701
0.0141817
0.0123047
0.0106422
0.0091868
0.00792371
0.00683395
0.00589664
0.00509152
0.00439627
0.00379507
0.00327298
0.00283175
0.00248969
0.0543907
0.0528068
0.0509485
0.0489318
0.0467958
0.0445408
0.0421676
0.0396825
0.0370971
0.0344301
0.0317073
0.0289608
0.0262279
0.0235491
0.0209656
0.0185166
0.0162355
0.0141468
0.0122643
0.0105913
0.00912213
0.00784446
0.00674205
0.00579651
0.00498866
0.00429837
0.00370789
0.00320019
0.00277549
0.00244807
0.0545578
0.0530282
0.0512121
0.0492212
0.0470902
0.0448202
0.0424144
0.0398853
0.0372508
0.0345351
0.0317693
0.0289878
0.0262287
0.0235315
0.0209353
0.0184764
0.0161855
0.0140852
0.0121884
0.0104987
0.00901195
0.00771832
0.00660387
0.00565213
0.0048448
0.00416363
0.0035873
0.00309869
0.00269349
0.00238222
0.0548197
0.0533558
0.0515948
0.0496383
0.0475189
0.0452331
0.0427915
0.0402118
0.0375186
0.0347421
0.0319183
0.029085
0.0262813
0.0235467
0.0209193
0.0184334
0.016118
0.0139943
0.0120746
0.0103629
0.00885628
0.00754685
0.00642233
0.00546754
0.00466498
0.00399563
0.00343888
0.00297411
0.00259211
0.00229971
0.055144
0.0537626
0.0520746
0.0501695
0.0480665
0.0457698
0.0432931
0.0406604
0.037903
0.0350564
0.0321615
0.0292597
0.0263918
0.0235986
0.0209187
0.0183863
0.0160297
0.0138698
0.0119189
0.0101811
0.00865421
0.0073314
0.00620086
0.00524761
0.00445424
0.00380136
0.00326826
0.00283265
0.00247851
0.00220852
0.0554923
0.054216
0.0526256
0.0507887
0.048716
0.0464175
0.0439131
0.0412321
0.0384111
0.0354896
0.0325124
0.0295249
0.0265707
0.0236938
0.0209356
0.0183328
0.0159153
0.0137048
0.0117144
0.00994794
0.00840311
0.00707233
0.00594271
0.00499786
0.00421954
0.00358785
0.00308119
0.00267883
0.0023601
0.00211732
0.0558143
0.0546767
0.0532122
0.0514632
0.0494402
0.0471599
0.0446464
0.0419319
0.0390558
0.0360603
0.0329922
0.0299008
0.0268344
0.0238428
0.0209738
0.0182702
0.015767
0.0134891
0.0114507
0.00965539
0.00809839
0.00676883
0.00565056
0.00472401
0.00396884
0.00336413
0.00288887
0.00252202
0.00224314
0.00203494
0.0560664
0.0551423
0.0538359
0.0522056
0.0502675
0.0480406
0.0455486
0.042823
0.0399042
0.0368354
0.0336631
0.0304397
0.027222
0.0240691
0.0210409
0.0181924
0.0155685
0.0132
0.0111029
0.00927927
0.00771908
0.00640418
0.00531211
0.0044183
0.00369903
0.00313141
0.00269306
0.00236449
0.00212629
0.00196546
0.0561823
0.0555908
0.0544853
0.0530028
0.0511797
0.049038
0.0466019
0.0438958
0.0409497
0.0378061
0.0345122
0.0311267
0.0277185
0.0243618
0.0211335
0.0181047
0.0153332
0.0128574
0.0106946
0.00884375
0.00728793
0.00599982
0.0049484
0.00410229
0.00343106
0.00290756
0.00250958
0.00221759
0.00201579
0.00190638
0.225705
0.0801831
0.0513684
0.0330004
0.0203581
0.0118823
0.00647526
0.00328822
0.00160848
0.000855969
0.000624546
0.000667398
0.000844696
0.00107785
0.00132187
0.00155098
0.00175103
0.00191507
0.00204088
0.00212925
0.00218263
0.00220464
0.00219968
0.0021726
0.00212837
0.00207189
0.00200772
0.00193933
0.00187123
0.00181514
0.258107
0.0951728
0.0617336
0.0401696
0.0252923
0.0153752
0.0088908
0.0048808
0.00258639
0.0013921
0.00085475
0.000692127
0.000735501
0.000885319
0.00108223
0.00129056
0.00148928
0.00166634
0.00181525
0.00193345
0.00202096
0.0020795
0.00211181
0.00212108
0.0021107
0.00208411
0.00204488
0.00199653
0.00194405
0.00188833
0.297332
0.109203
0.0722022
0.0473802
0.0304296
0.0191938
0.0117046
0.00688778
0.00395569
0.00227372
0.00137457
0.000949672
0.000806213
0.000825439
0.00093393
0.00108587
0.00125257
0.00141622
0.00156575
0.00169483
0.00180059
0.00188248
0.00194137
0.00197904
0.00199771
0.00199997
0.00198867
0.0019663
0.00193576
0.00189568
0.343719
0.121221
0.0821631
0.0536314
0.0350491
0.0229386
0.0147182