/*--------------------------------*- C++ -*----------------------------------*\
  =========                 |
  \\      /  F ield         | OpenFOAM: The Open Source CFD Toolbox
   \\    /   O peration     | Website:  https://openfoam.org
    \\  /    A nd           | Version:  12
     \\/     M anipulation  |
\*---------------------------------------------------------------------------*/
FoamFile
{
    format      ascii;
    class       volVectorField;
    location    "20";
    object      U;
}
// * * * * * * * * * * * * * * * * * * * * * * * * * * * * * * * * * * * * * //

dimensions      [0 1 -1 0 0 0 0];

internalField   nonuniform List<vector> 
6750
(
(0.200108 -0.0029895 0)
(0.200547 -0.00855757 0)
(0.200987 -0.0132124 0)
(0.201361 -0.0171805 0)
(0.201473 -0.0206765 0)
(0.200033 -0.00353173 0)
(0.20035 -0.00949097 0)
(0.200674 -0.0142115 0)
(0.200917 -0.0180446 0)
(0.201022 -0.0212143 0)
(0.200022 -0.00372463 0)
(0.200165 -0.00984169 0)
(0.200288 -0.014553 0)
(0.200331 -0.0182635 0)
(0.200302 -0.0212213 0)
(0.200005 -0.00377066 0)
(0.199986 -0.00989096 0)
(0.199906 -0.0145363 0)
(0.199758 -0.0181346 0)
(0.199581 -0.0209564 0)
(0.19999 -0.00371241 0)
(0.199822 -0.00969848 0)
(0.19955 -0.0142099 0)
(0.199211 -0.0176824 0)
(0.19887 -0.0203958 0)
(0.199977 -0.00356625 0)
(0.199673 -0.0092961 0)
(0.199213 -0.0136036 0)
(0.198679 -0.0169167 0)
(0.198158 -0.0195107 0)
(0.199966 -0.00334596 0)
(0.199531 -0.00871081 0)
(0.198886 -0.0127439 0)
(0.198154 -0.0158526 0)
(0.197441 -0.0182972 0)
(0.199956 -0.00306272 0)
(0.199396 -0.00796646 0)
(0.198571 -0.0116573 0)
(0.19764 -0.014512 0)
(0.196731 -0.0167689 0)
(0.199947 -0.00272661 0)
(0.199269 -0.00708717 0)
(0.198273 -0.0103748 0)
(0.197152 -0.0129274 0)
(0.196049 -0.0149565 0)
(0.199938 -0.00234808 0)
(0.199155 -0.00609952 0)
(0.198003 -0.00893314 0)
(0.196708 -0.0111414 0)
(0.195424 -0.0129056 0)
(0.199931 -0.00193833 0)
(0.199056 -0.00503234 0)
(0.19777 -0.00737381 0)
(0.196323 -0.00920443 0)
(0.19488 -0.0106732 0)
(0.199926 -0.00150888 0)
(0.198977 -0.00391543 0)
(0.197581 -0.00574034 0)
(0.196011 -0.00717062 0)
(0.194439 -0.00832192 0)
(0.199922 -0.00107091 0)
(0.19892 -0.00277774 0)
(0.197442 -0.0040754 0)
(0.195781 -0.00509361 0)
(0.19411 -0.00591495 0)
(0.199918 -0.000634433 0)
(0.198885 -0.00164589 0)
(0.197353 -0.00241778 0)
(0.195633 -0.00302248 0)
(0.193898 -0.00351077 0)
(0.199909 -0.000211615 0)
(0.198878 -0.0005412 0)
(0.197314 -0.000798631 0)
(0.195564 -0.00099848 0)
(0.193798 -0.00115973 0)
(0.199909 0.000207959 0)
(0.198878 0.000536295 0)
(0.197314 0.000792868 0)
(0.195564 0.000992072 0)
(0.193798 0.00115279 0)
(0.199918 0.000630809 0)
(0.198885 0.00164101 0)
(0.197353 0.00241203 0)
(0.195632 0.00301609 0)
(0.193898 0.00350384 0)
(0.199922 0.00106734 0)
(0.198919 0.0027729 0)
(0.197442 0.00406971 0)
(0.19578 0.00508726 0)
(0.19411 0.00590805 0)
(0.199926 0.0015054 0)
(0.198977 0.00391067 0)
(0.197581 0.00573473 0)
(0.196011 0.00716436 0)
(0.194438 0.0083151 0)
(0.199931 0.00193497 0)
(0.199056 0.0050277 0)
(0.197769 0.00736831 0)
(0.196323 0.00919827 0)
(0.19488 0.0106664 0)
(0.199938 0.00234487 0)
(0.199154 0.00609503 0)
(0.198002 0.0089278 0)
(0.196707 0.0111354 0)
(0.195424 0.012899 0)
(0.199946 0.00272359 0)
(0.199269 0.00708289 0)
(0.198272 0.0103697 0)
(0.197152 0.0129216 0)
(0.196049 0.0149501 0)
(0.199956 0.00305994 0)
(0.199395 0.00796241 0)
(0.19857 0.0116524 0)
(0.197639 0.0145064 0)
(0.19673 0.0167628 0)
(0.199966 0.00334344 0)
(0.19953 0.00870705 0)
(0.198885 0.0127393 0)
(0.198153 0.0158473 0)
(0.197441 0.0182913 0)
(0.199977 0.00356403 0)
(0.199672 0.00929267 0)
(0.199212 0.0135993 0)
(0.198678 0.0169117 0)
(0.198158 0.0195051 0)
(0.199989 0.00371053 0)
(0.199822 0.00969541 0)
(0.199549 0.014206 0)
(0.19921 0.0176778 0)
(0.19887 0.0203905 0)
(0.200005 0.00376912 0)
(0.199985 0.00988828 0)
(0.199906 0.0145328 0)
(0.199757 0.0181304 0)
(0.19958 0.0209516 0)
(0.200022 0.00372343 0)
(0.200165 0.00983941 0)
(0.200288 0.0145499 0)
(0.20033 0.0182597 0)
(0.200301 0.0212168 0)
(0.200033 0.00353087 0)
(0.20035 0.0094891 0)
(0.200674 0.0142088 0)
(0.200916 0.0180412 0)
(0.201021 0.0212102 0)
(0.200108 0.00298895 0)
(0.200547 0.0085561 0)
(0.200986 0.0132101 0)
(0.20136 0.0171774 0)
(0.201473 0.0206724 0)
(0.200814 -0.0278566 0)
(0.200274 -0.0307639 0)
(0.199977 -0.0332008 0)
(0.200022 -0.0352014 -8.30541e-22)
(0.200288 -0.036741 0)
(0.200721 -0.037816 0)
(0.201311 -0.0384029 5.48068e-20)
(0.202045 -0.0384412 -5.52954e-20)
(0.202901 -0.0378407 -4.27206e-22)
(0.203847 -0.0364978 -2.75321e-20)
(0.204831 -0.0343163 2.34043e-22)
(0.205789 -0.0312303 2.75114e-22)
(0.206644 -0.027226 1.38672e-20)
(0.207313 -0.0223598 1.3584e-20)
(0.207722 -0.0167653 3.15446e-20)
(0.207816 -0.010649 -3.15542e-20)
(0.207568 -0.00427159 1.27753e-20)
(0.206987 0.00207993 1.20767e-20)
(0.206114 0.00812549 -4.8737e-22)
(0.205015 0.013621 -4.94496e-22)
(0.203775 0.0183815 -2.37054e-20)
(0.202484 0.0222919 3.58542e-22)
(0.201225 0.0253069 -4.38093e-20)
(0.20007 0.0274414 4.34213e-20)
(0.199072 0.0287552 0)
(0.198267 0.0293357 0)
(0.197673 0.0292833 6.21519e-22)
(0.197312 0.0287092 0)
(0.197222 0.0277493 0)
(0.197308 0.0265128 0)
(0.200494 -0.0299655 0)
(0.200084 -0.0327391 0)
(0.199969 -0.0348832 0)
(0.200126 -0.0365828 7.84324e-22)
(0.200458 -0.0378595 0)
(0.200949 -0.0387108 0)
(0.201598 -0.0390994 -5.03011e-20)
(0.202392 -0.0389542 5.14874e-20)
(0.203308 -0.0381827 4.01625e-22)
(0.204308 -0.0366867 0)
(0.205339 -0.0343801 0)
(0.206334 -0.0312087 2.53711e-20)
(0.207215 -0.0271689 -2.5451e-20)
(0.207903 -0.0223208 0)
(0.208325 -0.0167935 8.56265e-20)
(0.208431 -0.0107797 -8.56272e-20)
(0.208195 -0.00451909 0)
(0.207624 0.00172583 -2.33014e-20)
(0.206757 0.00769746 2.34067e-20)
(0.205658 0.013169 0)
(0.204404 0.0179641 0)
(0.203082 0.0219674 -3.36129e-22)
(0.201773 0.0251258 4.11837e-20)
(0.200547 0.027442 -4.15145e-20)
(0.199459 0.028962 0)
(0.198548 0.0297603 0)
(0.197831 0.0299248 -5.85266e-22)
(0.197322 0.0295475 0)
(0.197065 0.0287293 0)
(0.197047 0.0275114 0)
(0.200162 -0.0316185 0)
(0.199945 -0.0340512 0)
(0.199946 -0.0359507 0)
(0.200168 -0.0374802 -4.83831e-20)
(0.200563 -0.03863 4.89256e-20)
(0.201132 -0.0393756 -5.08581e-20)
(0.201871 -0.0396661 5.13364e-20)
(0.202768 -0.0394242 -8.1849e-22)
(0.203796 -0.0385569 0)
(0.204912 -0.0369691 0)
(0.206057 -0.0345805 8.11278e-22)
(0.207159 -0.0313434 0)
(0.208133 -0.0272596 0)
(0.208895 -0.0223919 2.03281e-22)
(0.20937 -0.0168685 1.44295e-19)
(0.209504 -0.0108767 -1.44296e-19)
(0.209273 -0.00464723 -1.99567e-22)
(0.208683 0.00156832 0)
(0.207774 0.00752297 0)
(0.206611 0.0129993 -7.66527e-22)
(0.205275 0.0178265 0)
(0.203852 0.0218903 0)
(0.202427 0.0251351 7.0252e-22)
(0.201072 0.0275581 4.41581e-20)
(0.199846 0.0291985 -4.37467e-20)
(0.19879 0.0301248 4.33313e-20)
(0.197927 0.030421 -4.28329e-20)
(0.197268 0.030177 0)
(0.196844 0.0294954 0)
(0.196662 0.0284192 0)
(0.199849 -0.0330759 0)
(0.199766 -0.0352375 9.95473e-20)
(0.199845 -0.0369558 -5.0568e-20)
(0.200136 -0.0383508 -1.03408e-19)
(0.200617 -0.0393912 1.04472e-19)
(0.20129 -0.0400404 -5.19472e-20)
(0.202151 -0.0402392 0)
(0.203185 -0.0399062 -1.63258e-21)
(0.204362 -0.0389481 0)
(0.205634 -0.037273 0)
(0.206935 -0.0348056 -2.86699e-20)
(0.208184 -0.0315043 2.71071e-20)
(0.209287 -0.0273759 0)
(0.210153 -0.0224862 -2.13418e-22)
(0.210702 -0.0169624 2.0437e-19)
(0.210875 -0.0109872 -2.04372e-19)
(0.210647 -0.00478311 2.09519e-22)
(0.210025 0.00140833 0)
(0.20905 0.00735105 2.62173e-20)
(0.207792 0.0128358 -2.44743e-20)
(0.206334 0.017697 -8.0601e-22)
(0.20477 0.0218224 0)
(0.203188 0.0251542 1.55161e-21)
(0.201665 0.0276848 0)
(0.200265 0.0294472 -4.6407e-20)
(0.199034 0.0305032 8.97256e-20)
(0.197998 0.0309312 -8.73541e-20)
(0.197173 0.0308167 -4.21374e-20)
(0.19658 0.0302612 8.44885e-20)
(0.196231 0.029323 0)
(0.199497 -0.0344523 0)
(0.199507 -0.0364047 -1.04277e-19)
(0.199667 -0.0379777 1.0257e-19)
(0.200049 -0.0392586 0)
(0.200639 -0.0402052 0)
(0.201439 -0.0407706 -1.63496e-21)
(0.202446 -0.0408879 0)
(0.203641 -0.0404718 1.71094e-21)
(0.204992 -0.0394284 -2.73678e-20)
(0.206443 -0.0376682 2.75639e-20)
(0.20792 -0.0351204 2.87516e-20)
(0.209332 -0.0317489 -2.801e-20)
(0.210579 -0.0275654 -8.77986e-22)
(0.21156 -0.0226386 4.41826e-22)
(0.21219 -0.0170958 2.65995e-19)
(0.212406 -0.0111164 -2.65998e-19)
(0.21218 -0.00491634 -4.44655e-22)
(0.211521 0.00127127 8.86415e-22)
(0.210473 0.00721913 -2.7918e-20)
(0.209107 0.0127257 2.69247e-20)
(0.207514 0.0176306 2.80167e-20)
(0.205791 0.0218233 -2.69781e-20)
(0.204033 0.025245 -1.62608e-21)
(0.202323 0.0278841 0)
(0.200729 0.0297681 1.59101e-21)
(0.199302 0.0309532 0)
(0.198074 0.0315124 0)
(0.197062 0.0315266 9.19337e-20)
(0.196288 0.0310922 -8.7817e-20)
(0.19576 0.0302735 0)
(0.199075 -0.0357814 -9.98073e-20)
(0.199167 -0.0375667 1.5729e-19)
(0.199423 -0.0390255 -5.20941e-20)
(0.199915 -0.0402177 0)
(0.200631 -0.0410912 -5.3419e-20)
(0.201577 -0.0415897 5.24283e-20)
(0.202746 -0.0416386 -5.31509e-20)
(0.204119 -0.0411486 5.53806e-20)
(0.205655 -0.0400254 0)
(0.207293 -0.0381811 1.76075e-21)
(0.208952 -0.0355491 -2.88315e-20)
(0.21053 -0.032098 1.44044e-20)
(0.21192 -0.0278446 1.74925e-21)
(0.213015 -0.0228607 1.4291e-20)
(0.213723 -0.0172748 3.29529e-19)
(0.21398 -0.0112643 -3.29534e-19)
(0.213755 -0.0050408 1.54467e-20)
(0.213059 0.00116907 -1.87015e-21)
(0.211937 0.00714483 1.48184e-20)
(0.210464 0.0126914 -2.95505e-20)
(0.208735 0.0176528 -1.83894e-21)
(0.206852 0.0219206 0)
(0.204914 0.0254351 5.60858e-20)
(0.203012 0.028182 -5.72872e-20)
(0.201218 0.0301846 5.53271e-20)
(0.199587 0.0314942 -5.29477e-20)
(0.198157 0.0321796 -3.24122e-21)
(0.196948 0.0323184 -4.9327e-20)
(0.195981 0.0320024 1.41393e-19)
(0.195261 0.0312936 -9.88327e-20)
(0.19857 -0.037087 4.8931e-20)
(0.198749 -0.0387449 -5.52823e-20)
(0.199115 -0.040121 -5.60945e-20)
(0.19973 -0.0412499 5.69065e-20)
(0.200587 -0.0420699 -5.44486e-20)
(0.201691 -0.0425155 5.86211e-20)
(0.203032 -0.0425057 1.68983e-21)
(0.204588 -0.0419477 0)
(0.206312 -0.0407462 -2.89513e-20)
(0.208135 -0.0388154 -2.06705e-21)
(0.209967 -0.0360922 -2.0963e-21)
(0.211702 -0.0325501 3.09488e-20)
(0.213224 -0.0282105 1.43849e-20)
(0.214422 -0.0231493 -2.31461e-20)
(0.215199 -0.0174968 4.02187e-19)
(0.21549 -0.0114297 -3.86532e-19)
(0.215263 -0.00515685 -2.37156e-20)
(0.21453 0.00109981 1.77736e-20)
(0.213338 0.00712567 3.15842e-20)
(0.211764 0.0127304 1.92554e-21)
(0.209907 0.017762 1.79801e-21)
(0.207873 0.0221137 -3.07804e-20)
(0.205765 0.0257259 0)
(0.203678 0.0285819 -1.9135e-21)
(0.201688 0.0307018 5.38963e-20)
(0.199857 0.0321328 -5.67586e-20)
(0.198225 0.0329402 5.43894e-20)
(0.196818 0.0331992 -5.03254e-20)
(0.195657 0.0329985 -4.8041e-20)
(0.194739 0.0323937 5.45157e-20)
(0.197973 -0.0384021 0)
(0.198249 -0.0399714 -4.94542e-20)
(0.198735 -0.0412936 6.03539e-20)
(0.199483 -0.0423802 -5.80048e-20)
(0.20049 -0.0431613 5.5327e-20)
(0.201757 -0.0435632 -5.29834e-20)
(0.203273 -0.0434993 5.35196e-20)
(0.205009 -0.0428737 3.60634e-21)
(0.206912 -0.0415909 1.83773e-21)
(0.208907 -0.0395667 1.87362e-21)
(0.210898 -0.0367421 1.93413e-21)
(0.212772 -0.0330954 -9.82705e-22)
(0.214408 -0.0286532 1.70015e-20)
(0.21569 -0.0234956 -7.92956e-21)
(0.216522 -0.0177554 4.53357e-19)
(0.216836 -0.0116096 -4.69816e-19)
(0.216602 -0.00526527 -8.44168e-21)
(0.215832 0.00105939 1.46021e-20)
(0.214575 0.00715421 -1.05485e-21)
(0.212911 0.0128332 -4.1787e-21)
(0.210939 0.0179478 -2.09163e-21)
(0.208769 0.0223931 -2.06949e-21)
(0.206507 0.0261092 -4.07876e-21)
(0.20425 0.029078 6.69304e-20)
(0.20208 0.0313165 -6.6185e-20)
(0.200062 0.0328687 6.00216e-20)
(0.198238 0.0337967 -5.55532e-20)
(0.19664 0.0341736 4.95078e-20)
(0.195291 0.0340862 -5.91639e-20)
(0.194179 0.0335825 0)
(0.197272 -0.0397628 0)
(0.197653 -0.0412776 -3.29418e-21)
(0.198266 -0.0425689 4.76436e-20)
(0.199154 -0.0436285 1.57002e-22)
(0.200314 -0.0443795 -5.62898e-20)
(0.201743 -0.0447412 -3.63438e-21)
(0.203428 -0.0446223 -3.62262e-21)
(0.205333 -0.0439245 2.62804e-20)
(0.2074 -0.0425524 -3.22834e-20)
(0.209548 -0.0404243 -2.76593e-23)
(0.211675 -0.0374854 1.60403e-20)
(0.213663 -0.0337194 -1.61367e-20)
(0.215387 -0.0291583 7.31957e-21)
(0.216732 -0.023887 -8.38456e-21)
(0.2176 -0.0180412 5.30665e-19)
(0.217924 -0.0117988 -5.30649e-19)
(0.217675 -0.00536525 -8.85358e-21)
(0.216867 0.00104408 9.93091e-21)
(0.215551 0.00722265 -1.67356e-20)
(0.213806 0.0129889 2.21802e-20)
(0.211735 0.0181973 -3.84833e-23)
(0.209448 0.0227447 -3.49619e-20)
(0.207053 0.0265713 3.88362e-20)
(0.204648 0.0296575 4.28289e-21)
(0.20232 0.032018 4.09564e-21)
(0.200133 0.0336936 -6.42673e-20)
(0.198136 0.0347435 8.31036e-22)
(0.196362 0.0352386 6.91531e-20)
(0.194838 0.0352646 0)
(0.193546 0.0348637 0)
(0.196447 -0.0412029 0)
(0.196941 -0.0426898 5.75565e-20)
(0.197684 -0.043966 2.12029e-22)
(0.198712 -0.0450075 2.35875e-22)
(0.200021 -0.045731 -1.11281e-19)
(0.201606 -0.0460502 5.84214e-20)
(0.203446 -0.0458697 3.78626e-21)
(0.205503 -0.0450901 0)
(0.207713 -0.0436166 -2.97054e-20)
(0.209988 -0.0413709 2.99226e-20)
(0.212223 -0.038303 -1.66463e-20)
(0.214296 -0.0344026 -3.10494e-22)
(0.216082 -0.0297076 1.71443e-20)
(0.217464 -0.024308 -5.52609e-22)
(0.218347 -0.0183425 6.01713e-19)
(0.218664 -0.0119897 -6.01992e-19)
(0.218391 -0.00545443 5.83748e-22)
(0.217543 0.00105088 1.88846e-20)
(0.21617 0.00732361 1.62468e-22)
(0.214356 0.0131861 -2.35662e-20)
(0.212202 0.0184959 4.00032e-20)
(0.209818 0.0231516 -3.73674e-20)
(0.207312 0.027094 0)
(0.204785 0.0303022 -4.47636e-21)
(0.202323 0.0327886 7.05302e-20)
(0.199993 0.0345912 -1.4266e-19)
(0.197846 0.0357661 8.4932e-22)
(0.195918 0.0363821 -3.10039e-21)
(0.194238 0.0365236 6.36977e-20)
(0.19279 0.0362325 0)
(0.195472 -0.0427507 6.73492e-21)
(0.196081 -0.0442274 0)
(0.196953 -0.0454967 3.53524e-21)
(0.198117 -0.0465217 -5.37001e-20)
(0.199566 -0.0472139 5.80645e-20)
(0.201292 -0.0474821 -6.01205e-20)
(0.203271 -0.0472284 6.09649e-20)
(0.205457 -0.0463526 3.17249e-20)
(0.207782 -0.0447622 -6.87621e-20)
(0.210155 -0.042383 -2.69714e-21)
(0.212466 -0.0391706 3.17386e-20)
(0.214592 -0.0351212 -1.77773e-20)
(0.216409 -0.0302792 8.73654e-21)
(0.217801 -0.0247393 1.44199e-20)
(0.218675 -0.0186436 6.70903e-19)
(0.21897 -0.0121723 -6.80192e-19)
(0.218662 -0.00552852 1.41588e-20)
(0.21777 0.00107869 1.01508e-20)
(0.216345 0.00745065 -1.99175e-20)
(0.21447 0.0134136 4.53288e-20)
(0.212247 0.0188282 2.69515e-21)
(0.209785 0.0235955 -7.45685e-20)
(0.207192 0.0276565 3.9347e-20)
(0.204568 0.0309898 7.70874e-20)
(0.201999 0.0336054 -7.60196e-20)
(0.199554 0.0355388 7.34119e-20)
(0.197284 0.0368429 -7.68909e-20)
(0.195227 0.0375838 4.4206e-21)
(0.193416 0.0378448 0)
(0.191843 0.0376745 -8.46723e-21)
(0.194313 -0.0444267 -7.00441e-21)
(0.195033 -0.0459007 5.86073e-20)
(0.196027 -0.0471636 -5.62895e-20)
(0.197316 -0.0481669 -3.65967e-21)
(0.198892 -0.0488174 -3.75215e-21)
(0.200741 -0.0490206 0)
(0.202835 -0.0486769 3.87742e-21)
(0.205124 -0.0476871 3.65954e-20)
(0.207535 -0.0459618 -6.45402e-20)
(0.209973 -0.0434318 3.61621e-20)
(0.212326 -0.0400595 2.2263e-21)
(0.214473 -0.0358481 -1.85283e-20)
(0.21629 -0.0308483 1.86279e-20)
(0.217664 -0.0251604 6.06741e-22)
(0.218507 -0.0189296 7.51601e-19)
(0.218762 -0.0123364 -7.51293e-19)
(0.218408 -0.00558198 -6.51946e-22)
(0.217465 0.00112768 2.12259e-20)
(0.215989 0.00759825 -2.11073e-20)
(0.214061 0.0136603 -2.64889e-21)
(0.211783 0.0191788 4.01323e-20)
(0.209261 0.0240569 -8.74227e-20)
(0.206602 0.0282366 3.66481e-20)
(0.203906 0.0316954 -5.22489e-21)
(0.201256 0.034442 0)
(0.198723 0.0365089 4.87729e-21)
(0.196358 0.037946 4.74303e-21)
(0.194199 0.0388161 -7.38472e-20)
(0.192284 0.0392013 6.7995e-20)
(0.190621 0.0391662 8.80568e-21)
(0.192922 -0.0462412 0)
(0.193745 -0.0477099 -1.07716e-22)
(0.19485 -0.0489593 -5.71199e-20)
(0.19625 -0.0499287 5.82269e-20)
(0.197935 -0.0505214 6.05847e-20)
(0.199885 -0.0506404 -9.67187e-20)
(0.202068 -0.0501862 2.77193e-20)
(0.20443 -0.0490618 -7.13928e-23)
(0.206894 -0.047182 4.2541e-21)
(0.209363 -0.044484 0)
(0.211725 -0.0409374 1.86461e-20)
(0.213859 -0.0365529 -3.81e-20)
(0.215645 -0.0313882 1.94235e-20)
(0.216974 -0.0255485 -6.34889e-22)
(0.217763 -0.0191816 8.29801e-19)
(0.21796 -0.0124682 -8.30147e-19)
(0.217548 -0.00560718 6.8219e-22)
(0.21655 0.00119964 2.24977e-20)
(0.215023 0.00776295 -4.50904e-20)
(0.213048 0.0139183 2.25511e-20)
(0.210724 0.0195347 0)
(0.208158 0.0245182 -5.71517e-21)
(0.205453 0.028812 -1.25254e-22)
(0.202707 0.0323936 4.94336e-20)
(0.200002 0.0352699 -1.2394e-19)
(0.197408 0.037471 8.46662e-20)
(0.194974 0.0390434 8.15678e-20)
(0.192741 0.040046 -8.49235e-20)
(0.190748 0.0405599 -1.30515e-22)
(0.189033 0.0406751 0)
(0.191243 -0.0481926 0)
(0.192154 -0.0496438 5.23836e-20)
(0.193355 -0.0508654 -5.71233e-20)
(0.19485 -0.0517826 -5.57977e-20)
(0.196621 -0.052296 6.05746e-20)
(0.198648 -0.0523078 3.58393e-20)
(0.200892 -0.0517198 6.84493e-22)
(0.203296 -0.0504385 -3.7834e-20)
(0.205779 -0.0483845 -8.81554e-21)
(0.208246 -0.045502 0)
(0.210583 -0.0417687 0)
(0.212672 -0.0372033 1.76567e-20)
(0.214397 -0.0318701 -2.15359e-20)
(0.215655 -0.0258792 0)
(0.216369 -0.0193806 9.10141e-19)
(0.21649 -0.012554 -9.10155e-19)
(0.216009 -0.00559563 0)
(0.21495 0.00129775 -2.23529e-20)
(0.213371 0.00794248 2.67093e-20)
(0.211353 0.0141798 0)
(0.208994 0.0198832 0)
(0.206396 0.0249621 1.20532e-20)
(0.203661 0.0293615 -4.18431e-20)
(0.200884 0.0330591 7.51431e-23)
(0.198147 0.0360604 4.0508e-20)
(0.195514 0.0383932 8.96561e-20)
(0.193038 0.0401004 -9.35205e-20)
(0.190755 0.041237 -8.4233e-20)
(0.18871 0.0418825 8.75094e-20)
(0.186978 0.0421621 0)
(0.189206 -0.0502662 0)
(0.190185 -0.0516788 0)
(0.191466 -0.0528519 0)
(0.193035 -0.0536936 5.61987e-20)
(0.194871 -0.0541022 -2.62491e-20)
(0.196948 -0.0539808 -3.56757e-20)
(0.199224 -0.053234 -4.12208e-21)
(0.201638 -0.0517734 -3.5241e-20)
(0.20411 -0.0495262 -1.01919e-21)
(0.20654 -0.0464447 3.72758e-20)
(0.20882 -0.0425153 2.46175e-21)
(0.210834 -0.0377647 5.15341e-21)
(0.212471 -0.0322641 1.35996e-20)
(0.213634 -0.0261274 -1.02656e-20)
(0.214252 -0.0195063 9.92027e-19)
(0.214284 -0.012579 -9.9203e-19)
(0.213723 -0.00553774 -1.31459e-20)
(0.212598 0.00142638 9.20349e-21)
(0.210966 0.00813614 -6.34263e-21)
(0.208908 0.014439 -3.2316e-21)
(0.20652 0.0202137 5.16891e-20)
(0.203901 0.0253736 5.45823e-22)
(0.20115 0.0298657 -5.07445e-20)
(0.198359 0.0336683 6.35702e-21)
(0.195605 0.0367858 -4.28495e-20)
(0.192955 0.0392439 -5.36343e-20)
(0.190456 0.041082 9.95815e-20)
(0.188145 0.0423509 0)
(0.18607 0.0431284 0)
(0.184353 0.0435832 0)
(0.186729 -0.0524331 5.61281e-20)
(0.187755 -0.0537786 -5.90319e-20)
(0.189097 -0.0548776 0)
(0.190721 -0.0556162 3.01741e-20)
(0.192598 -0.0558918 -3.47583e-20)
(0.194698 -0.0556097 -3.27722e-20)
(0.196978 -0.054679 4.19528e-20)
(0.199373 -0.0530174 0)
(0.201801 -0.05056 4.68308e-21)
(0.204165 -0.0472681 0)
(0.206358 -0.0431369 -1.67198e-23)
(0.208268 -0.0382014 -8.48748e-24)
(0.209792 -0.0325389 -2.79853e-21)
(0.210839 -0.0262671 -1.45818e-21)
(0.211344 -0.0195381 1.07655e-18)
(0.211273 -0.0125278 -1.07658e-18)
(0.210624 -0.00542328 1.61126e-21)
(0.209428 0.00159073 3.29914e-21)
(0.207743 0.00834425 -5.30017e-23)
(0.205648 0.0146916 -6.18178e-23)
(0.203236 0.0205175 0)
(0.200605 0.0257395 -6.75237e-21)
(0.197848 0.0303072 0)
(0.195055 0.0341995 4.00995e-20)
(0.1923 0.0374203 -5.23336e-20)
(0.189647 0.0399931 -4.47588e-20)
(0.187142 0.0419542 5.00117e-20)
(0.184819 0.0433499 0)
(0.182733 0.0442563 -8.58868e-20)
(0.181054 0.0448921 9.24149e-20)
(0.183718 -0.0546497 0)
(0.184769 -0.0558941 1.31562e-22)
(0.186155 -0.0568893 -6.14673e-20)
(0.187813 -0.0574949 5.93222e-20)
(0.189708 -0.0576078 -3.84942e-21)
(0.191807 -0.0571374 8.18986e-21)
(0.194063 -0.0559986 -4.34826e-21)
(0.196411 -0.0541167 0)
(0.198767 -0.0514354 0)
(0.201037 -0.0479255 0)
(0.203116 -0.0435915 -2.65215e-21)
(0.204899 -0.0384763 1.99108e-20)
(0.206287 -0.032663 -3.3298e-20)
(0.2072 -0.0262721 1.89287e-20)
(0.207578 -0.0194552 1.15512e-18)
(0.207394 -0.0123847 -1.16808e-18)
(0.206651 -0.00524179 1.96182e-20)
(0.20538 0.0017964 -4.36879e-20)
(0.203642 0.00856787 3.15599e-20)
(0.201513 0.0149345 3.56868e-21)
(0.199083 0.0207873 3.66655e-21)
(0.196445 0.0260484 0)
(0.193691 0.0306704 0)
(0.190905 0.0346332 7.0327e-21)
(0.188159 0.0379402 -1.4003e-20)
(0.185514 0.0406131 6.94267e-21)
(0.183015 0.0426851 1.05803e-19)
(0.180693 0.044198 -9.68037e-20)
(0.178606 0.0452266 2.03053e-22)
(0.176982 0.0460422 0)
(0.180067 -0.0568574 5.541e-20)
(0.181122 -0.0579631 -5.12863e-20)
(0.182536 -0.0588226 -2.51558e-20)
(0.18421 -0.0592638 2.95024e-20)
(0.186103 -0.0591846 3.57718e-20)
(0.188178 -0.0584996 -3.66817e-20)
(0.190387 -0.0571311 -3.54819e-20)
(0.192662 -0.0550127 3.15941e-20)
(0.194922 -0.052098 -2.23261e-20)
(0.197073 -0.0483676 2.0204e-20)
(0.199015 -0.0438352 -2.50313e-20)
(0.200649 -0.0385514 1.07649e-20)
(0.201884 -0.0326042 1.03519e-20)
(0.202648 -0.026116 -7.96362e-22)
(0.202889 -0.0192368 1.24642e-18)
(0.202585 -0.0121345 -1.24645e-18)
(0.201742 -0.00498297 8.97702e-22)
(0.200396 0.00204899 1.67518e-20)
(0.198606 0.00880821 1.56169e-20)
(0.196446 0.0151647 -3.00987e-20)
(0.194003 0.0210162 2.72147e-20)
(0.191365 0.0262899 -2.66669e-20)
(0.18862 0.0309414 6.93627e-20)
(0.185848 0.0349518 -6.04487e-20)
(0.183118 0.0383242 -5.22219e-20)
(0.180489 0.0410789 5.11014e-20)
(0.178002 0.0432456 5.64107e-20)
(0.175688 0.044862 -6.17763e-20)
(0.173608 0.0460018 -1.10122e-19)
(0.172044 0.0469891 1.0459e-19)
(0.17566 -0.0589826 3.33429e-21)
(0.176702 -0.0599104 5.42409e-20)
(0.17813 -0.0606013 -5.91512e-20)
(0.179805 -0.0608474 0)
(0.181679 -0.060548 3.82428e-21)
(0.183711 -0.0596248 0)
(0.185852 -0.0580085 4.32301e-21)
(0.188033 -0.0556424 -3.80518e-20)
(0.190174 -0.0524901 4.13349e-20)
(0.192185 -0.0485425 -2.62396e-21)
(0.193971 -0.0438224 5.61202e-21)
(0.195439 -0.0383874 2.9706e-21)
(0.196508 -0.0323297 1.57295e-21)
(0.197112 -0.0257724 8.266e-22)
(0.197208 -0.0188626 1.33031e-18)
(0.196779 -0.0117623 -1.33033e-18)
(0.195837 -0.00463721 -9.31785e-22)
(0.194418 0.00235336 -1.91797e-21)
(0.192579 0.00906578 3.98837e-21)
(0.190393 0.0153788 0)
(0.187942 0.0211973 4.11351e-21)
(0.185311 0.0264536 6.17806e-20)
(0.182581 0.0311066 -6.44395e-20)
(0.179828 0.0351386 -8.18373e-21)
(0.177119 0.0385526 0)
(0.174509 0.0413671 -7.88842e-21)
(0.172037 0.043609 0)
(0.169733 0.0453116 -1.08469e-19)
(0.167661 0.046548 1.12822e-19)
(0.166154 0.0476917 -6.98022e-21)
(0.170367 -0.0609355 4.98731e-20)
(0.171386 -0.061647 -5.25547e-20)
(0.172818 -0.0621372 1.79472e-22)
(0.174484 -0.0621592 -3.30483e-20)
(0.176324 -0.0616146 5.78202e-20)
(0.178298 -0.0604336 -3.62649e-20)
(0.180354 -0.0585566 -4.44999e-21)
(0.182423 -0.0559371 1.11894e-22)
(0.184428 -0.0525496 0)
(0.186282 -0.0483951 2.70977e-21)
(0.187896 -0.0435052 1.78855e-20)
(0.189186 -0.0379439 -2.69865e-20)
(0.190078 -0.0318063 -1.62713e-21)
(0.190516 -0.0252149 6.18158e-21)
(0.190463 -0.0183127 1.40505e-18)
(0.189911 -0.0112544 -1.41983e-18)
(0.188871 -0.00419623 8.67657e-21)
(0.187383 0.00271281 2.04027e-21)
(0.185502 0.00933947 -3.79096e-20)
(0.183298 0.0155717 3.33972e-20)
(0.180846 0.0213219 -4.248e-21)
(0.178227 0.0265278 0)
(0.175518 0.0311513 -8.50776e-21)
(0.17279 0.0351763 8.42403e-21)
(0.170105 0.0386053 -5.88647e-20)
(0.167517 0.0414554 1.39779e-19)
(0.165061 0.0437499 -5.60066e-20)
(0.162764 0.0455184 3.1874e-22)
(0.160698 0.0468337 -1.17187e-19)
(0.159237 0.048112 1.25694e-19)
(0.164048 -0.0626094 0)
(0.165039 -0.0630692 0)
(0.166472 -0.0633284 3.02676e-20)
(0.168122 -0.0631005 -2.4046e-20)
(0.16992 -0.0622902 0)
(0.171824 -0.0608371 4.12936e-21)
(0.173781 -0.0586927 4.28303e-21)
(0.175725 -0.0558215 4.76373e-21)
(0.177579 -0.0522089 0)
(0.179262 -0.0478661 0)
(0.180693 -0.0428329 2.95134e-21)
(0.181796 -0.0371784 -1.4514e-20)
(0.182506 -0.0309997 1.6422e-20)
(0.182775 -0.0244172 8.88561e-22)
(0.182575 -0.0175681 1.49113e-18)
(0.181901 -0.0105984 -1.49164e-18)
(0.180772 -0.00365393 -1.01821e-21)
(0.179223 0.00312796 1.30303e-20)
(0.17731 0.00962502 -1.71072e-20)
(0.175096 0.015735 0)
(0.172654 0.021378 0)
(0.170058 0.0264972 0)
(0.167377 0.0310579 0)
(0.164679 0.0350448 -9.17953e-21)
(0.162023 0.0384602 -8.77068e-21)
(0.159457 0.0413191 0)
(0.157015 0.0436419 -7.65456e-20)
(0.154723 0.0454536 5.81479e-20)
(0.152657 0.0468279 0)
(0.151223 0.0482136 0)
(0.156548 -0.0638767 2.94731e-21)
(0.157517 -0.0640541 0)
(0.158952 -0.0640559 0)
(0.160583 -0.063557 0)
(0.162334 -0.0624663 0)
(0.16416 -0.0607341 0)
(0.166008 -0.0583235 -4.37433e-21)
(0.167815 -0.055211 -2.29513e-21)
(0.169507 -0.0513929 2.09865e-20)
(0.17101 -0.0468902 -1.33863e-21)
(0.17225 -0.04175 -5.07351e-20)
(0.17316 -0.0360456 3.98117e-20)
(0.173686 -0.0298743 7.90703e-22)
(0.173788 -0.0233527 -1.42715e-20)
(0.173446 -0.0166108 1.56443e-18)
(0.17266 -0.00978447 -1.56448e-18)
(0.17145 -0.00300746 -1.73954e-20)
(0.169854 0.00359524 -7.53548e-22)
(0.167922 0.00991323 5.48363e-20)
(0.165714 0.0158545 -6.96336e-20)
(0.163295 0.0213472 3.63989e-21)
(0.160733 0.0263402 3.76176e-20)
(0.158092 0.0308016 4.84682e-21)
(0.155433 0.0347172 9.3751e-21)
(0.15281 0.0380884 0)
(0.150269 0.040928 0)
(0.147841 0.0432528 0)
(0.14555 0.0450836 0)
(0.143478 0.0464956 0)
(0.142047 0.047957 -8.5463e-21)
(0.147694 -0.0645831 -5.68452e-21)
(0.148654 -0.0644546 2.21502e-20)
(0.150097 -0.0641775 -2.28781e-20)
(0.151711 -0.063393 0)
(0.153413 -0.0620148 2.86352e-20)
(0.155155 -0.0600051 -3.31347e-20)
(0.156888 -0.0573398 3.66536e-20)
(0.158549 -0.0540072 -3.0906e-20)
(0.160071 -0.0500149 0)
(0.161386 -0.0453928 -2.00914e-20)
(0.16243 -0.0401944 1.38513e-21)
(0.163146 -0.0344956 3.87435e-20)
(0.163489 -0.0283919 -1.53864e-20)
(0.163429 -0.0219946 -7.7383e-21)
(0.162955 -0.0154245 1.63716e-18)
(0.16207 -0.00880576 -1.62031e-18)
(0.160796 -0.00225885 -8.59289e-21)
(0.15917 0.00410471 -1.64004e-20)
(0.157238 0.0101871 5.69234e-20)
(0.155055 0.0159072 1.49582e-21)
(0.152679 0.0212013 -4.35321e-20)
(0.150169 0.026024 -5.0339e-21)
(0.147583 0.0303464 -9.08413e-20)
(0.144975 0.0341549 7.38034e-20)
(0.142394 0.0374494 -6.95759e-20)
(0.139883 0.04024 7.74148e-20)
(0.137471 0.0425395 0)
(0.135179 0.0443639 -7.45773e-20)
(0.133094 0.0457906 7.22043e-20)
(0.131641 0.0472923 1.78058e-20)
(0.137288 -0.0645359 -1.5106e-20)
(0.138261 -0.0640868 1.9809e-20)
(0.13972 -0.0635169 1.91318e-20)
(0.141322 -0.0624405 -2.22416e-20)
(0.142974 -0.0607777 -2.97833e-20)
(0.144628 -0.0585039 6.45359e-20)
(0.146238 -0.0556082 -5.13427e-20)
(0.147746 -0.0520912 1.48276e-20)
(0.14909 -0.0479711 0)
(0.150211 -0.043286 2.27763e-20)
(0.151057 -0.0380939 -2.02049e-20)
(0.15158 -0.0324714 1.63694e-21)
(0.151746 -0.0265107 7.36494e-21)
(0.151536 -0.0203153 -1.13704e-20)
(0.150944 -0.013995 1.68638e-18)
(0.149978 -0.00766042 -1.678e-18)
(0.148662 -0.00141754 -1.36792e-20)
(0.14703 0.00463672 9.19689e-21)
(0.145123 0.0104179 -2.45339e-21)
(0.14299 0.015856 -5.06519e-20)
(0.140682 0.0208961 4.50853e-20)
(0.138248 0.0254984 1.03168e-20)
(0.135739 0.029637 4.72094e-20)
(0.133202 0.0332986 -1.14693e-19)
(0.13068 0.0364812 1.44562e-19)
(0.128211 0.0391911 -7.05824e-20)
(0.12582 0.0414368 -8.11708e-20)
(0.123528 0.0432287 7.85729e-20)
(0.121429 0.0446458 7.54591e-20)
(0.119931 0.0461485 -9.58519e-20)
(0.125092 -0.0634829 -1.95904e-20)
(0.126107 -0.0627093 -1.67193e-21)
(0.127591 -0.0618417 1.16577e-21)
(0.129184 -0.0604791 1.91566e-20)
(0.130783 -0.0585489 3.03453e-21)
(0.132343 -0.0560407 -4.96556e-21)
(0.133821 -0.0529574 1.48784e-22)
(0.135165 -0.0493116 0)
(0.136323 -0.0451311 0)
(0.137247 -0.0404604 2.24283e-20)
(0.137893 -0.0353604 -2.58635e-20)
(0.138229 -0.0299061 -1.64861e-21)
(0.138229 -0.0241836 0)
(0.137885 -0.0182866 -3.0305e-21)
(0.137195 -0.0123119 1.7281e-18)
(0.136174 -0.00635469 -1.71961e-18)
(0.134845 -0.000505044 -5.66711e-21)
(0.133237 0.00515572 0)
(0.131389 0.0105572 2.47087e-21)
(0.12934 0.0156409 -3.6724e-20)
(0.127133 0.0203609 3.58357e-20)
(0.124809 0.0246833 -5.24368e-21)
(0.122409 0.028585 0)
(0.119973 0.0320529 2.09801e-22)
(0.117535 0.0350829 1.60838e-20)
(0.115128 0.0376772 -1.04693e-20)
(0.112775 0.0398384 8.54581e-20)
(0.110494 0.0415711 7.98086e-22)
(0.108381 0.0429532 9.5823e-21)
(0.106822 0.0444185 -7.16121e-20)
(0.110817 -0.0610666 1.31469e-20)
(0.111897 -0.0599764 -1.10603e-20)
(0.113411 -0.0588207 0)
(0.114988 -0.0571968 1.6556e-20)
(0.116522 -0.0550392 -1.90648e-20)
(0.117973 -0.0523527 1.38299e-20)
(0.119303 -0.0491534 -2.53386e-20)
(0.120471 -0.0454647 1.29529e-20)
(0.121435 -0.041322 0)
(0.122156 -0.0367743 0)
(0.122606 -0.0318825 -1.36535e-20)
(0.122763 -0.0267174 1.40294e-20)
(0.122614 -0.0213566 0)
(0.122157 -0.0158814 -9.68887e-22)
(0.1214 -0.0103731 1.7516e-18)
(0.120357 -0.00491012 -1.75165e-18)
(0.119052 0.000435127 1.16418e-21)
(0.11751 0.00559773 0)
(0.115764 0.0105218 1.82308e-20)
(0.113844 0.0151609 -1.78098e-20)
(0.111783 0.0194779 0)
(0.109614 0.0234447 0)
(0.107369 0.0270412 5.07401e-20)
(0.105076 0.0302547 -9.46851e-20)
(0.102765 0.0330789 3.85849e-20)
(0.10046 0.0355122 -8.50644e-20)
(0.0981801 0.0375515 9.36907e-20)
(0.095938 0.0391947 0)
(0.0938252 0.0405157 -9.44053e-20)
(0.0922138 0.0419153 7.48674e-20)
(0.0940796 -0.0567158 6.88221e-21)
(0.0952148 -0.0553438 -6.72786e-21)
(0.0967487 -0.0539462 9.23881e-21)
(0.0982823 -0.0521209 3.82872e-21)
(0.099722 -0.0498189 4.48703e-21)
(0.101035 -0.0470564 -2.8428e-20)
(0.102195 -0.0438605 1.07097e-20)
(0.103168 -0.0402629 1.85143e-21)
(0.103925 -0.0363043 -1.80001e-20)
(0.104442 -0.032035 3.92461e-20)
(0.104702 -0.0275132 -2.12162e-20)
(0.104696 -0.0228022 -1.48743e-20)
(0.104422 -0.0179682 2.08133e-20)
(0.103886 -0.0130775 -1.14362e-20)
(0.103101 -0.00819381 1.77149e-18)
(0.102083 -0.00337673 -1.76263e-18)
(0.100853 0.00131984 -1.43995e-20)
(0.099433 0.00584827 3.01919e-20)
(0.0978451 0.0101676 -1.76713e-20)
(0.0961129 0.0142431 -4.37571e-20)
(0.0942592 0.0180465 8.79567e-20)
(0.0923064 0.0215549 -4.39218e-20)
(0.0902765 0.0247512 -5.57324e-21)
(0.0881908 0.027623 4.73176e-20)
(0.0860703 0.0301626 -1.35322e-19)
(0.0839325 0.0323651 -1.5247e-20)
(0.0817889 0.0342241 -8.62307e-21)