/*--------------------------------*- C++ -*----------------------------------*\
  =========                 |
  \\      /  F ield         | OpenFOAM: The Open Source CFD Toolbox
   \\    /   O peration     | Website:  https://openfoam.org
    \\  /    A nd           | Version:  12
     \\/     M anipulation  |
\*---------------------------------------------------------------------------*/
FoamFile
{
    format      ascii;
    class       volVectorField;
    location    "20";
    object      UMean;
}
// * * * * * * * * * * * * * * * * * * * * * * * * * * * * * * * * * * * * * //

dimensions      [0 1 -1 0 0 0 0];

internalField   nonuniform List<vector> 
6750
(
(0.200119 -0.00218465 0)
(0.200597 -0.00578799 0)
(0.201073 -0.00853723 0)
(0.201473 -0.0107467 0)
(0.201697 -0.0126436 0)
(0.200034 -0.00277272 0)
(0.200381 -0.0068161 0)
(0.200756 -0.00969031 0)
(0.201074 -0.0118526 0)
(0.201289 -0.0135481 0)
(0.200024 -0.00298581 0)
(0.200215 -0.00723852 0)
(0.200425 -0.0101716 0)
(0.200587 -0.0123077 0)
(0.200696 -0.0139232 0)
(0.200008 -0.00306983 0)
(0.20006 -0.00740872 0)
(0.200105 -0.0103639 0)
(0.200114 -0.0124815 0)
(0.200103 -0.0140562 0)
(0.199993 -0.00306185 0)
(0.199918 -0.00737328 0)
(0.199803 -0.0102957 0)
(0.199657 -0.0123807 0)
(0.199514 -0.0139286 0)
(0.19998 -0.00297312 0)
(0.199783 -0.00715349 0)
(0.199511 -0.00998607 0)
(0.199205 -0.0120108 0)
(0.198917 -0.0135216 0)
(0.199968 -0.00281422 0)
(0.199654 -0.00676947 0)
(0.199224 -0.00945473 0)
(0.198754 -0.0113836 0)
(0.198311 -0.0128343 0)
(0.199957 -0.00259444 0)
(0.199529 -0.00624045 0)
(0.198945 -0.00872304 0)
(0.19831 -0.0105173 0)
(0.197709 -0.0118786 0)
(0.199946 -0.00232285 0)
(0.199412 -0.00558702 0)
(0.19868 -0.00781676 0)
(0.197888 -0.00943835 0)
(0.19713 -0.0106793 0)
(0.199937 -0.00200923 0)
(0.199305 -0.00483242 0)
(0.198439 -0.00676699 0)
(0.197502 -0.0081821 0)
(0.196597 -0.00927339 0)
(0.199929 -0.00166419 0)
(0.199214 -0.00400219 0)
(0.198232 -0.005609 0)
(0.197167 -0.00679022 0)
(0.196134 -0.00770704 0)
(0.199923 -0.00129868 0)
(0.19914 -0.00312277 0)
(0.198064 -0.00437994 0)
(0.196896 -0.00530767 0)
(0.195757 -0.00603132 0)
(0.199918 -0.000923321 0)
(0.199087 -0.00221991 0)
(0.197939 -0.00311631 0)
(0.196695 -0.00377919 0)
(0.195476 -0.00429796 0)
(0.199914 -0.00054763 0)
(0.199054 -0.0013172 0)
(0.19786 -0.00185141 0)
(0.196566 -0.00224597 0)
(0.195295 -0.00255526 0)
(0.199907 -0.000182245 0)
(0.199045 -0.000433887 0)
(0.197824 -0.000612333 0)
(0.196506 -0.000742854 0)
(0.195209 -0.000845057 0)
(0.199907 0.000179869 0)
(0.199046 0.000429318 0)
(0.197824 0.000606743 0)
(0.196506 0.000736893 0)
(0.195209 0.000838985 0)
(0.199914 0.000545245 0)
(0.199054 0.00131262 0)
(0.19786 0.00184583 0)
(0.196566 0.00224003 0)
(0.195294 0.00254921 0)
(0.199918 0.000920945 0)
(0.199087 0.00221534 0)
(0.197939 0.00311075 0)
(0.196695 0.00377328 0)
(0.195476 0.00429195 0)
(0.199923 0.00129633 0)
(0.19914 0.00311824 0)
(0.198064 0.00437443 0)
(0.196896 0.00530182 0)
(0.195757 0.00602538 0)
(0.199929 0.00166187 0)
(0.199214 0.0039977 0)
(0.198232 0.00560355 0)
(0.197167 0.00678445 0)
(0.196134 0.0077012 0)
(0.199937 0.00200695 0)
(0.199305 0.00482799 0)
(0.198439 0.00676162 0)
(0.197501 0.00817643 0)
(0.196597 0.00926766 0)
(0.199946 0.00232063 0)
(0.199412 0.00558267 0)
(0.19868 0.00781149 0)
(0.197887 0.00943282 0)
(0.197129 0.0106737 0)
(0.199956 0.00259231 0)
(0.199529 0.00623623 0)
(0.198944 0.0087179 0)
(0.19831 0.0105119 0)
(0.197708 0.0118732 0)
(0.199968 0.0028122 0)
(0.199654 0.0067654 0)
(0.199224 0.00944972 0)
(0.198753 0.0113783 0)
(0.198311 0.0128289 0)
(0.19998 0.00297126 0)
(0.199783 0.00714962 0)
(0.19951 0.00998121 0)
(0.199204 0.0120055 0)
(0.198916 0.0135162 0)
(0.199993 0.00306014 0)
(0.199917 0.0073696 0)
(0.199803 0.010291 0)
(0.199657 0.0123754 0)
(0.199513 0.0139231 0)
(0.200008 0.00306828 0)
(0.20006 0.00740525 0)
(0.200105 0.0103593 0)
(0.200114 0.0124762 0)
(0.200102 0.0140505 0)
(0.200024 0.00298442 0)
(0.200215 0.00723525 0)
(0.200425 0.010167 0)
(0.200586 0.0123023 0)
(0.200695 0.0139172 0)
(0.200034 0.00277149 0)
(0.200381 0.00681302 0)
(0.200755 0.0096859 0)
(0.201073 0.0118471 0)
(0.201289 0.0135418 0)
(0.200119 0.00218365 0)
(0.200597 0.00578526 0)
(0.201073 0.0085331 0)
(0.201472 0.0107414 0)
(0.201696 0.0126372 0)
(0.201894 -0.0163575 0)
(0.201945 -0.0177035 0)
(0.202142 -0.0188384 0)
(0.202534 -0.0197879 -3.18854e-22)
(0.203051 -0.0205291 0)
(0.20367 -0.0210436 0)
(0.204384 -0.0212969 2.24618e-20)
(0.205188 -0.021232 -2.26621e-20)
(0.206065 -0.0207775 -1.74515e-22)
(0.206986 -0.0198594 -1.16063e-20)
(0.20791 -0.0184145 3.20117e-23)
(0.208782 -0.0164053 7.77126e-23)
(0.20954 -0.0138342 5.89528e-21)
(0.210119 -0.0107528 5.78393e-21)
(0.210465 -0.0072655 1.33497e-20)
(0.21054 -0.00352214 -1.33541e-20)
(0.21033 0.000296857 5.3308e-21)
(0.209852 0.00400293 4.95041e-21)
(0.209145 0.00742216 -2.85096e-22)
(0.208269 0.010415 -2.74129e-22)
(0.207292 0.0128879 -9.65533e-21)
(0.206282 0.0147973 1.4815e-22)
(0.205301 0.0161446 -1.76668e-20)
(0.204398 0.0169665 1.75103e-20)
(0.203605 0.0173234 0)
(0.202944 0.0172874 0)
(0.202424 0.0169312 2.61531e-22)
(0.202055 0.016329 0)
(0.201864 0.0155672 0)
(0.201787 0.0147085 0)
(0.201858 -0.0175814 0)
(0.201977 -0.0188876 0)
(0.202267 -0.0199105 0)
(0.202718 -0.0207415 3.01218e-22)
(0.203276 -0.0213744 0)
(0.203935 -0.0217889 0)
(0.204695 -0.0219433 -1.97654e-20)
(0.205548 -0.0217761 2.02255e-20)
(0.206476 -0.0212164 1.641e-22)
(0.207446 -0.0201947 0)
(0.208415 -0.0186546 0)
(0.209326 -0.0165663 1.05532e-20)
(0.210115 -0.0139378 -1.05865e-20)
(0.210718 -0.0108235 0)
(0.21108 -0.00732479 3.61428e-20)
(0.211165 -0.00358454 -3.61273e-20)
(0.21096 0.000227824 0)
(0.210478 0.00393539 -9.84044e-21)
(0.209759 0.00737435 9.8843e-21)
(0.208859 0.0104112 0)
(0.207847 0.0129538 0)
(0.206791 0.0149552 -1.3888e-22)
(0.205751 0.0164103 1.74243e-20)
(0.204778 0.0173481 -1.75717e-20)
(0.203909 0.017821 0)
(0.203166 0.0178945 0)
(0.202559 0.017636 -2.46305e-22)
(0.202093 0.0171099 0)
(0.201795 0.0163843 0)
(0.201653 0.015482 0)
(0.201784 -0.018613 0)
(0.201998 -0.0197736 0)
(0.202351 -0.0207007 0)
(0.202847 -0.0214704 -1.72593e-20)
(0.203456 -0.0220561 1.74456e-20)
(0.204181 -0.0224261 -1.86338e-20)
(0.205022 -0.0225314 1.8809e-20)
(0.205969 -0.0223082 -3.15306e-22)
(0.207 -0.0216856 0)
(0.20808 -0.0205959 0)
(0.209159 -0.0189858 3.13853e-22)
(0.210174 -0.0168289 0)
(0.211055 -0.0141362 0)
(0.211732 -0.0109641 8.33905e-23)
(0.212145 -0.0074145 6.07709e-20)
(0.212253 -0.00362877 -6.07715e-20)
(0.212042 0.000226489 -8.58944e-23)
(0.211527 0.00397775 0)
(0.210748 0.00746451 0)
(0.209767 0.0105555 -3.40576e-22)
(0.208656 0.0131592 0)
(0.207487 0.0152277 0)
(0.206328 0.0167535 3.04563e-22)
(0.205231 0.0177625 1.97184e-20)
(0.204239 0.0183039 -1.95346e-20)
(0.203377 0.0184404 1.95332e-20)
(0.202657 0.0182386 -1.93108e-20)
(0.202083 0.0177635 0)
(0.201674 0.0170868 0)
(0.201429 0.0162322 0)
(0.2017 -0.019548 0)
(0.201983 -0.0205985 3.26494e-20)
(0.202387 -0.0214617 -1.64396e-20)
(0.20294 -0.0221874 -3.44932e-20)
(0.203623 -0.0227356 3.53213e-20)
(0.204441 -0.0230671 -1.76811e-20)
(0.205394 -0.0231287 0)
(0.206469 -0.0228543 -5.64736e-22)
(0.207643 -0.0221731 0)
(0.208873 -0.021019 0)
(0.210103 -0.0193412 -1.10081e-20)
(0.211262 -0.0171163 1.04149e-20)
(0.21227 -0.0143584 0)
(0.213048 -0.0111255 -8.7549e-23)
(0.213531 -0.00752033 8.59715e-20)
(0.213671 -0.00368319 -8.59726e-20)
(0.213452 0.000221509 9.01782e-23)
(0.212889 0.00402323 0)
(0.212028 0.00756399 1.17506e-20)
(0.210934 0.0107142 -1.09654e-20)
(0.209687 0.013383 -3.72404e-22)
(0.208366 0.0155213 0)
(0.207047 0.0171197 7.29065e-22)
(0.205788 0.0182011 0)
(0.204637 0.0188121 -2.16824e-20)
(0.203624 0.0190129 4.20162e-20)
(0.202765 0.0188684 -4.10603e-20)
(0.202062 0.018443 -1.99563e-20)
(0.201534 0.01781 3.98894e-20)
(0.201175 0.0170014 0)
(0.201584 -0.0204619 0)
(0.201924 -0.0214418 -3.19647e-20)
(0.20239 -0.0222648 3.14865e-20)
(0.203019 -0.0229606 0)
(0.203799 -0.0234823 0)
(0.204735 -0.0237852 -5.08905e-22)
(0.205826 -0.0238114 0)
(0.207057 -0.0234925 5.91841e-22)
(0.2084 -0.0227571 -9.58839e-21)
(0.209807 -0.0215396 9.65713e-21)
(0.211213 -0.0197911 1.07002e-20)
(0.212537 -0.0174906 -1.04236e-20)
(0.213691 -0.0146548 -3.394e-22)
(0.214586 -0.0113439 1.76936e-22)
(0.215148 -0.00766199 1.1187e-19)
(0.215325 -0.00374995 -1.11872e-19)
(0.215098 0.000228315 -1.95391e-22)
(0.214483 0.0041033 3.9922e-22)
(0.213529 0.00771816 -1.28122e-20)
(0.212308 0.010944 1.23581e-20)
(0.210906 0.0136899 1.31908e-20)
(0.209412 0.0159059 -1.27092e-20)
(0.207908 0.0175809 -7.64058e-22)
(0.206463 0.018736 0)
(0.205128 0.0194157 7.82709e-22)
(0.203939 0.0196785 0)
(0.202916 0.0195885 0)
(0.202064 0.0192092 4.49676e-20)
(0.201397 0.0186132 -4.29251e-20)
(0.200908 0.0178344 0)
(0.201427 -0.0213876 -2.8142e-20)
(0.20183 -0.0223272 4.44767e-20)
(0.202375 -0.0231304 -1.48084e-20)
(0.2031 -0.0238135 0)
(0.203997 -0.0243235 -1.58886e-20)
(0.205072 -0.0246101 1.56445e-20)
(0.206323 -0.024611 -1.66517e-20)
(0.20773 -0.0242549 1.73236e-20)
(0.209262 -0.023469 0)
(0.210862 -0.0221876 5.85524e-22)
(0.212458 -0.0203628 -1.04e-20)
(0.21396 -0.0179753 4.98045e-21)
(0.215268 -0.0150442 4.46448e-22)
(0.216286 -0.0116326 5.57974e-21)
(0.216931 -0.00784709 1.38686e-19)
(0.217147 -0.00383059 -1.38693e-19)
(0.216913 0.000251441 6.91128e-21)
(0.216245 0.00422851 -6.78139e-22)
(0.215195 0.0079431 7.09762e-21)
(0.213841 0.0112657 -1.38595e-20)
(0.212277 0.0141046 -8.96392e-22)
(0.2106 0.0164088 0)
(0.208899 0.018166 2.77445e-20)
(0.207252 0.0193962 -2.83559e-20)
(0.205717 0.0201426 2.77616e-20)
(0.204335 0.0204633 -2.65308e-20)
(0.203129 0.0204222 -1.66132e-21)
(0.202109 0.0200832 -2.49522e-20)
(0.201287 0.0195183 7.16662e-20)
(0.200648 0.0187565 -5.01585e-20)
(0.20123 -0.0223505 1.25411e-20)
(0.20171 -0.0232773 -1.41853e-20)
(0.20235 -0.0240816 -1.47243e-20)
(0.20319 -0.0247692 1.49409e-20)
(0.204223 -0.0252817 -1.49591e-20)
(0.205456 -0.025563 1.61566e-20)
(0.206882 -0.0255468 4.29829e-22)
(0.208481 -0.0251585 0)
(0.210214 -0.0243232 -9.20607e-21)
(0.212017 -0.0229744 -1.132e-21)
(0.21381 -0.0210645 -1.19914e-21)
(0.215493 -0.0185759 1.08317e-20)
(0.216958 -0.0155303 5.55461e-21)
(0.218099 -0.0119941 -9.06966e-21)
(0.218827 -0.00807746 1.6942e-19)
(0.219082 -0.00392678 -1.62828e-19)
(0.21884 0.00028932 -1.06329e-20)
(0.21812 0.00439769 8.07296e-21)
(0.216974 0.0082386 1.51197e-20)
(0.215488 0.0116807 1.25656e-21)
(0.213761 0.0146308 1.13453e-21)
(0.211897 0.0170364 -1.52989e-20)
(0.209996 0.0188844 0)
(0.20814 0.0201938 -1.02013e-21)
(0.206395 0.0210075 2.78898e-20)
(0.204809 0.0213838 -2.93372e-20)
(0.203408 0.0213869 2.82901e-20)
(0.202207 0.0210828 -2.61967e-20)
(0.201217 0.0205433 -2.51375e-20)
(0.20041 0.0197877 2.8537e-20)
(0.200995 -0.0233824 0)
(0.201569 -0.0243228 -1.15465e-20)
(0.202321 -0.0251474 1.41457e-20)
(0.203291 -0.0258545 -1.41607e-20)
(0.204476 -0.0263814 1.3477e-20)
(0.205881 -0.0266661 -1.38722e-20)
(0.207496 -0.0266378 1.38947e-20)
(0.209297 -0.0262186 9.69264e-22)
(0.211237 -0.0253311 5.23711e-22)
(0.213248 -0.0239075 5.68446e-22)
(0.215239 -0.0219006 6.48372e-22)
(0.217101 -0.0192943 -3.47854e-22)
(0.218719 -0.0161134 6.47095e-21)
(0.219979 -0.0124281 -2.85311e-21)
(0.220786 -0.00835315 1.91838e-19)
(0.221078 -0.00403949 -1.98792e-19)
(0.220828 0.000339883 -4.02171e-21)
(0.220055 0.00460791 6.68894e-21)
(0.218817 0.00860152 -5.13125e-22)
(0.217202 0.0121866 -2.06653e-21)
(0.215315 0.0152676 -1.06809e-21)
(0.213268 0.0177905 -1.07572e-21)
(0.211166 0.0197408 -2.15051e-21)
(0.209101 0.021137 3.53187e-20)
(0.207144 0.0220221 -3.49984e-20)
(0.205348 0.0224546 3.21102e-20)
(0.203746 0.0225 -2.97428e-20)
(0.202355 0.0222266 2.66572e-20)
(0.201187 0.0217078 -3.18292e-20)
(0.200199 0.0209489 0)
(0.200721 -0.0245177 0)
(0.201406 -0.025496 -6.26291e-22)
(0.202284 -0.026357 1.0085e-20)
(0.2034 -0.0270961 4.08558e-22)
(0.20475 -0.0276461 -1.2257e-20)
(0.206337 -0.0279395 -8.84786e-22)
(0.20815 -0.0279005 -8.43302e-22)
(0.210158 -0.0274478 7.03605e-21)
(0.212309 -0.0265013 -8.68036e-21)
(0.214526 -0.024992 -3.56543e-23)
(0.216711 -0.0228729 5.2915e-21)
(0.218747 -0.0201301 -5.3233e-21)
(0.22051 -0.0167917 2.77467e-21)
(0.221882 -0.0129326 -3.16689e-21)
(0.222763 -0.00867277 2.25277e-19)
(0.223086 -0.00416858 -2.25283e-19)
(0.222826 0.000401751 -4.12065e-21)
(0.222002 0.00485641 4.62818e-21)
(0.220674 0.00902821 -8.34006e-21)
(0.218934 0.0127796 1.10685e-20)
(0.216893 0.0160121 -4.4732e-23)
(0.214669 0.0186697 -1.8545e-20)
(0.212373 0.0207364 2.05603e-20)
(0.210102 0.02223 2.34233e-21)
(0.207935 0.0231938 2.20295e-21)
(0.20593 0.0236866 -3.5356e-20)
(0.204123 0.0237757 3.07701e-22)
(0.202538 0.0235317 3.8219e-20)
(0.201188 0.0230305 0)
(0.200011 0.0222619 0)
(0.200404 -0.025792 0)
(0.201216 -0.0268286 1.02513e-20)
(0.202234 -0.0277388 4.41133e-22)
(0.203506 -0.0285189 4.93965e-22)
(0.205032 -0.0290971 -2.18462e-20)
(0.20681 -0.0294004 1.17497e-20)
(0.208825 -0.029348 8.81393e-22)
(0.211042 -0.0288549 0)
(0.213401 -0.0278386 -8.09193e-21)
(0.21582 -0.026229 8.07472e-21)
(0.218191 -0.0239799 -5.33927e-21)
(0.22039 -0.0210798 -5.57213e-22)
(0.222289 -0.0175609 5.95886e-21)
(0.223762 -0.0135035 -2.14285e-22)
(0.224708 -0.00903326 2.56964e-19)
(0.225056 -0.0043127 -2.57089e-19)
(0.224782 0.000474257 2.7145e-22)
(0.223907 0.00514057 9.26881e-21)
(0.222492 0.0095145 3.89477e-22)
(0.220633 0.0134546 -1.19879e-20)
(0.218446 0.0168592 2.12809e-20)
(0.216053 0.0196698 -1.99305e-20)
(0.21357 0.0218687 0)
(0.211102 0.0234729 -2.44814e-21)
(0.208731 0.0245255 3.95804e-20)
(0.20652 0.0250859 -8.0363e-20)
(0.204511 0.0252233 2.94831e-22)
(0.202732 0.0250107 -1.87099e-21)
(0.201198 0.0245267 3.62991e-20)
(0.19983 0.0237459 0)
(0.200035 -0.02724 7.80114e-22)
(0.200988 -0.0283507 0)
(0.202156 -0.0293193 5.79089e-22)
(0.203594 -0.0301453 -8.76321e-21)
(0.205302 -0.0307525 9.28862e-21)
(0.207276 -0.0310624 -1.14267e-20)
(0.209494 -0.0309894 1.15872e-20)
(0.211918 -0.0304448 7.3262e-21)
(0.21448 -0.0293438 -1.67378e-20)
(0.21709 -0.0276159 -1.61956e-21)
(0.219636 -0.0252163 8.96599e-21)
(0.221986 -0.0221366 -6.0844e-21)
(0.224006 -0.0184139 2.71435e-21)
(0.225568 -0.0141342 5.51836e-21)
(0.226567 -0.00942974 2.88655e-19)
(0.226932 -0.0044692 -2.92618e-19)
(0.22664 0.000557508 6.67733e-21)
(0.225712 0.00545798 5.2704e-21)
(0.224214 0.0100558 -9.94716e-21)
(0.222242 0.0142055 2.40838e-20)
(0.219917 0.017802 1.96663e-21)
(0.217365 0.020784 -4.09738e-20)
(0.214706 0.023132 2.18226e-20)
(0.21205 0.0248615 4.39308e-20)
(0.209484 0.0260154 -4.33222e-20)
(0.207075 0.0266538 4.24864e-20)
(0.20487 0.026847 -4.46125e-20)
(0.2029 0.0266709 2.61655e-21)
(0.201184 0.0262069 0)
(0.199629 0.0254165 -5.09867e-21)
(0.199598 -0.0288951 -8.10784e-22)
(0.200704 -0.0300901 6.46573e-21)
(0.202029 -0.0311217 -6.28361e-21)
(0.203639 -0.0319939 -5.13378e-22)
(0.205534 -0.0326265 -5.71943e-22)
(0.207703 -0.0329351 0)
(0.210123 -0.0328294 6.29425e-22)
(0.212746 -0.0322176 7.66885e-21)
(0.215501 -0.0310132 -1.46078e-20)
(0.218291 -0.029146 8.74874e-21)
(0.220996 -0.0265731 6.50442e-22)
(0.223481 -0.0232906 -6.25638e-21)
(0.225606 -0.0193408 6.29003e-21)
(0.22724 -0.0148161 2.35272e-22)
(0.228279 -0.00985549 3.25931e-19)
(0.228652 -0.00463403 -3.25754e-19)
(0.228336 0.000652505 -3.12032e-22)
(0.227355 0.00580659 1.07916e-20)
(0.225775 0.0106473 -1.07329e-20)
(0.223697 0.0150252 -1.40587e-21)
(0.221243 0.0188319 2.23604e-20)
(0.218542 0.0220032 -4.9098e-20)
(0.21572 0.0245171 2.07239e-20)
(0.212887 0.026388 -3.068e-21)
(0.210138 0.0276578 0)
(0.207542 0.0283868 2.85421e-21)
(0.20515 0.0286466 2.79423e-21)
(0.202996 0.0285155 -4.42941e-20)
(0.201103 0.0280773 4.08039e-20)
(0.199368 0.0272844 5.30201e-21)
(0.199071 -0.0307883 0)
(0.200336 -0.0320718 -1.45527e-22)
(0.201824 -0.033166 -4.8521e-21)
(0.20361 -0.0340798 4.93388e-21)
(0.205691 -0.0347287 7.06078e-21)
(0.208053 -0.0350227 -1.19342e-20)
(0.210667 -0.0348675 3.73826e-21)
(0.21348 -0.0341683 -1.00591e-22)
(0.216415 -0.032838 8.50025e-22)
(0.219367 -0.0308075 0)
(0.222212 -0.0280372 5.5352e-21)
(0.224811 -0.024528 -1.20246e-20)
(0.227022 -0.0203285 6.4845e-21)
(0.228712 -0.0155379 -2.46186e-22)
(0.229775 -0.0103019 3.63764e-19)
(0.230145 -0.00480174 -3.63891e-19)
(0.229798 0.000761228 3.26527e-22)
(0.228761 0.00618483 1.16579e-20)
(0.227102 0.0112841 -2.38135e-20)
(0.224924 0.015906 1.21319e-20)
(0.22235 0.0199389 0)
(0.219513 0.0233159 -3.32363e-21)
(0.21654 0.0260124 -1.47609e-22)
(0.213546 0.0280411 2.94681e-20)
(0.210626 0.0294424 -7.45091e-20)
(0.207856 0.0302769 5.11039e-20)
(0.205288 0.0306165 4.99687e-20)
(0.202961 0.0305415 -5.19969e-20)
(0.200899 0.030138 -1.56811e-22)
(0.198997 0.0293549 0)
(0.198422 -0.0329462 0)
(0.199849 -0.0343158 1.76587e-21)
(0.201502 -0.0354671 -1.94979e-21)
(0.203463 -0.0364123 -3.65848e-21)
(0.205727 -0.0370628 3.85437e-21)
(0.208275 -0.0373235 3.9675e-21)
(0.211072 -0.0370965 1.06055e-21)
(0.21406 -0.0362855 -5.42473e-21)
(0.217156 -0.0348035 -1.68596e-21)
(0.220251 -0.0325835 0)
(0.223214 -0.0295904 0)
(0.225905 -0.025831 5.89789e-21)
(0.228178 -0.0213606 -7.15085e-21)
(0.229903 -0.0162855 0)
(0.230975 -0.010758 4.04181e-19)
(0.231329 -0.00496525 -4.04171e-19)
(0.230944 0.000886614 0)
(0.229848 0.00659148 -1.18288e-20)
(0.228112 0.011961 1.41758e-20)
(0.22584 0.0168392 0)
(0.223157 0.0211117 0)
(0.220196 0.0247086 7.09111e-21)
(0.217087 0.027603 -2.52992e-20)
(0.213946 0.0298053 -3.36305e-22)
(0.210872 0.0313546 2.47764e-20)
(0.207941 0.0323105 5.58912e-20)
(0.205211 0.0327452 -5.83572e-20)
(0.202722 0.0327399 -5.32127e-20)
(0.200504 0.0323827 5.52553e-20)
(0.198451 0.0316262 0)
(0.197605 -0.0353904 0)
(0.199192 -0.0368361 0)
(0.20101 -0.0380326 0)
(0.203142 -0.0389929 1.41443e-21)
(0.205581 -0.0396242 8.53945e-23)
(0.208304 -0.0398274 -1.81185e-21)
(0.21127 -0.0395019 -3.41736e-22)
(0.214415 -0.0385506 -5.43695e-21)
(0.21765 -0.0368881 -1.60572e-21)
(0.220862 -0.0344509 7.29857e-21)
(0.223918 -0.0312094 6.33885e-22)
(0.226674 -0.0271771 1.57925e-21)
(0.228986 -0.0224168 5.00313e-21)
(0.230724 -0.0170417 -3.80377e-21)
(0.231786 -0.0112107 4.47329e-19)
(0.23211 -0.00511592 -4.47314e-19)
(0.231678 0.00103255 -6.76145e-21)
(0.230521 0.00702564 4.69355e-21)
(0.228711 0.0126726 -3.5053e-21)
(0.226352 0.0178154 -1.87131e-21)
(0.22357 0.022337 3.07505e-20)
(0.220499 0.0261654 1.04492e-21)
(0.217269 0.0292709 -3.0808e-20)
(0.213997 0.0316616 4.00159e-21)
(0.210784 0.0333748 -2.7078e-20)
(0.20771 0.0344686 -3.45494e-20)
(0.204833 0.0350148 6.3543e-20)
(0.202196 0.0350946 0)
(0.199833 0.034798 0)
(0.19765 0.0340887 0)
(0.196561 -0.0381342 -4.50706e-21)
(0.198302 -0.039638 4.7828e-21)
(0.200279 -0.0408612 0)
(0.202575 -0.041814 -4.73456e-22)
(0.205178 -0.0423995 4.15103e-22)
(0.208061 -0.0425154 -1.5028e-21)
(0.211176 -0.0420599 2.25851e-21)
(0.214456 -0.0409364 0)
(0.217805 -0.0390623 7.73251e-22)
(0.221106 -0.0363793 0)
(0.224225 -0.0328644 -2.26345e-23)
(0.227017 -0.0285385 -9.66246e-24)
(0.22934 -0.0234723 -9.83856e-22)
(0.231068 -0.0177861 -5.79505e-22)
(0.232101 -0.0116443 4.94139e-19)
(0.232381 -0.00524343 -4.94174e-19)
(0.231895 0.00120378 8.25462e-22)
(0.230673 0.00748655 1.78638e-21)
(0.228791 0.0134129 -7.70841e-23)
(0.226353 0.0188235 -8.59468e-23)
(0.223483 0.0235999 0)
(0.220316 0.0276677 -4.11304e-21)
(0.21698 0.0309949 0)
(0.213595 0.033587 2.57305e-20)
(0.210262 0.0354788 -3.34205e-20)
(0.207061 0.0367268 -2.9326e-20)
(0.204053 0.0374013 3.26967e-20)
(0.201284 0.037583 0)
(0.19879 0.037363 -5.79246e-20)
(0.196498 0.0367246 6.23091e-20)
(0.195211 -0.0411806 0)
(0.197096 -0.0427159 1.9766e-22)
(0.199225 -0.0439404 5.77695e-21)
(0.201673 -0.0448564 -5.43719e-21)
(0.204426 -0.0453633 2.65326e-22)
(0.207449 -0.0453571 -5.38493e-23)
(0.210691 -0.0447359 -2.32309e-22)
(0.214077 -0.0434054 0)
(0.21751 -0.0412874 0)
(0.220869 -0.0383302 0)
(0.224019 -0.0345184 -6.63834e-22)
(0.226816 -0.0298814 6.59387e-21)
(0.229122 -0.0244977 -1.14754e-20)
(0.230813 -0.0184943 7.47024e-21)
(0.231797 -0.0120405 5.41433e-19)
(0.232019 -0.00533584 -5.47522e-19)
(0.231469 0.00140576 1.03847e-20)
(0.230182 0.00797325 -2.43782e-20)
(0.228231 0.0141749 1.79314e-20)
(0.225721 0.0198511 2.11872e-21)
(0.222776 0.0248826 2.29847e-21)
(0.219527 0.0291936 0)
(0.216104 0.0327496 0)
(0.212623 0.0355533 4.53472e-21)
(0.209187 0.0376369 -9.25497e-21)
(0.205877 0.0390542 4.69116e-21)
(0.202755 0.0398737 7.13923e-20)
(0.199869 0.0401743 -6.52482e-20)
(0.19726 0.0400483 2.43814e-22)
(0.194881 0.0395065 0)
(0.193455 -0.0445184 -1.15045e-20)
(0.195469 -0.0460495 1.08054e-20)
(0.197738 -0.0472428 3.80716e-21)
(0.200325 -0.0480861 -4.41452e-21)
(0.203209 -0.048476 -2.46544e-21)
(0.20635 -0.048308 2.34917e-21)
(0.209691 -0.0474819 -1.20857e-21)
(0.213154 -0.0459078 1.01464e-21)
(0.216637 -0.0435134 -3.27014e-21)
(0.220019 -0.0402551 3.04809e-21)
(0.223164 -0.0361262 -6.69011e-21)
(0.225932 -0.0311651 2.23558e-21)
(0.228189 -0.0254581 3.3567e-21)
(0.229818 -0.0191382 -3.2921e-22)
(0.230732 -0.0123784 5.97671e-19)
(0.230882 -0.00537966 -5.97731e-19)
(0.230261 0.00164438 4.90435e-22)
(0.228906 0.00848424 9.76458e-21)
(0.226891 0.0149499 9.83653e-21)
(0.224319 0.0208829 -1.82783e-20)
(0.221312 0.0261643 1.7531e-20)
(0.217998 0.030717 -1.70568e-20)
(0.214504 0.0345046 4.6141e-20)
(0.210947 0.0375267 -4.01773e-20)
(0.207427 0.0398125 -3.56144e-20)
(0.204026 0.0414127 3.48016e-20)
(0.200808 0.0423927 3.9013e-20)
(0.197821 0.042829 -4.26843e-20)
(0.19511 0.0428145 -7.80239e-20)
(0.192668 0.042396 7.41857e-20)
(0.191164 -0.048118 -1.16082e-21)
(0.193288 -0.0496002 -1.36923e-20)
(0.195684 -0.0507223 1.50761e-20)
(0.198393 -0.0514506 0)
(0.201386 -0.0516796 -6.796e-22)
(0.204618 -0.0513062 0)
(0.208028 -0.0502341 -2.1813e-22)
(0.211533 -0.0483792 -2.46754e-21)
(0.215029 -0.0456775 2.92621e-21)
(0.218395 -0.0420943 -4.25031e-22)
(0.221498 -0.0376331 1.31892e-21)
(0.224202 -0.0323412 8.90801e-22)
(0.226379 -0.0263124 5.6393e-22)
(0.227919 -0.0196849 3.41709e-22)
(0.228742 -0.0126339 6.54789e-19)
(0.228806 -0.00536 -6.54826e-19)
(0.228107 0.00192557 -5.09054e-22)
(0.226685 0.00901675 -1.11029e-21)
(0.224612 0.015727 2.49288e-21)
(0.221989 0.0219006 0)
(0.218935 0.0274195 2.73483e-21)
(0.215574 0.0322064 4.16477e-20)
(0.21203 0.0362231 -4.32176e-20)
(0.208415 0.0394661 -5.71211e-21)
(0.204831 0.0419609 0)
(0.201359 0.0437548 -5.61275e-21)
(0.19806 0.044909 0)
(0.194987 0.045497 -7.74658e-20)
(0.19219 0.0456115 8.06227e-20)
(0.189704 0.0453427 -5.20194e-21)
(0.188177 -0.0519257 -1.89067e-20)
(0.190391 -0.0533055 1.98103e-20)
(0.192897 -0.0543095 2.61586e-22)
(0.195708 -0.0548747 8.1502e-21)
(0.198785 -0.0548942 -1.20133e-20)
(0.202079 -0.0542689 6.31394e-21)
(0.205523 -0.0529088 2.24536e-22)
(0.209033 -0.0507375 1.48363e-22)
(0.212502 -0.0477007 0)
(0.215811 -0.0437745 4.38931e-22)
(0.218832 -0.0389727 4.96438e-21)
(0.221435 -0.0333518 -7.28068e-21)
(0.223499 -0.0270126 -6.0198e-22)
(0.224924 -0.0200968 2.83326e-21)
(0.225637 -0.0127802 7.12312e-19)
(0.225602 -0.00526084 -7.19787e-19)
(0.224821 0.00225466 4.8149e-21)
(0.223334 0.00956588 1.26028e-21)
(0.221211 0.0164916 -2.44132e-20)
(0.218551 0.0228804 2.15848e-20)
(0.215467 0.0286165 -2.82424e-21)
(0.212078 0.033623 0)
(0.208504 0.0378599 -5.86428e-21)
(0.204855 0.0413209 5.87984e-21)
(0.201227 0.0440274 -4.21753e-20)
(0.197701 0.0460223 1.00628e-19)
(0.194341 0.0473624 -4.03957e-20)
(0.191196 0.0481161 3.77625e-22)
(0.188324 0.0483761 -8.72327e-20)
(0.185813 0.0482818 9.35491e-20)
(0.184292 -0.0558553 0)
(0.186572 -0.0570709 0)
(0.189172 -0.0579034 -1.17715e-20)
(0.192063 -0.0582525 9.69381e-21)
(0.195198 -0.0580113 0)
(0.19852 -0.057087 -7.07889e-22)
(0.201961 -0.0553981 -6.11559e-22)
(0.205433 -0.0528785 -5.95015e-23)
(0.208832 -0.0494851 0)
(0.212042 -0.0452058 0)
(0.21494 -0.0400651 6.70467e-22)
(0.217403 -0.0341286 -4.85898e-21)
(0.219322 -0.0275025 5.67895e-21)
(0.220606 -0.0203308 3.84791e-22)
(0.221191 -0.0127874 7.80031e-19)
(0.221048 -0.00506554 -7.80346e-19)
(0.220183 0.00263545 -5.92677e-22)
(0.218635 0.0101231 8.44009e-21)
(0.216474 0.0172238 -1.10035e-20)
(0.213793 0.0237917 0)
(0.210699 0.029715 0)
(0.207306 0.0349176 0)
(0.203726 0.0393585 0)
(0.200065 0.043028 -6.82434e-21)
(0.196416 0.0459433 -6.3675e-21)
(0.192857 0.0481423 0)
(0.189451 0.0496757 -5.70929e-20)
(0.186249 0.0506067 4.35024e-20)
(0.183314 0.051027 0)
(0.18079 0.0511295 0)
(0.179254 -0.0597774 -2.15651e-21)
(0.181579 -0.0607605 0)
(0.184255 -0.0613627 0)
(0.187203 -0.0614393 0)
(0.190364 -0.0608853 0)
(0.193679 -0.0596166 0)
(0.197076 -0.0575629 6.2459e-22)
(0.200467 -0.0546703 2.06852e-22)
(0.203751 -0.0509084 1.73177e-21)
(0.206816 -0.0462776 1.91033e-21)
(0.209548 -0.0408136 -1.11963e-20)
(0.211834 -0.0345896 1.16164e-20)
(0.213576 -0.0277163 1.32934e-21)
(0.214695 -0.0203375 -5.95991e-21)
(0.215136 -0.0126228 8.47222e-19)
(0.214878 -0.00475757 -8.47318e-19)
(0.21393 0.00306873 -1.10238e-20)
(0.212331 0.0106743 -1.15641e-21)
(0.210148 0.0178951 3.76581e-20)
(0.207467 0.0245933 -4.91083e-20)
(0.204388 0.0306618 2.12528e-21)
(0.201017 0.0360265 2.75523e-20)
(0.197458 0.0406455 3.70446e-21)
(0.193811 0.044506 6.96973e-21)
(0.190165 0.0476204 0)
(0.186595 0.0500206 0)
(0.183162 0.0517506 0)
(0.179916 0.0528673 0)
(0.176929 0.0534605 0)
(0.174402 0.0537779 -6.7542e-21)
(0.172746 -0.063503 4.74608e-21)
(0.175096 -0.0641806 -1.70339e-20)
(0.17783 -0.0644908 1.76478e-20)
(0.18081 -0.0642379 0)
(0.183965 -0.0633213 -1.20508e-20)
(0.187233 -0.0616684 1.39295e-20)
(0.190542 -0.0592227 -6.49121e-21)
(0.193806 -0.0559441 5.55186e-21)
(0.196926 -0.0518165 0)
(0.1998 -0.0468531 -3.44523e-21)
(0.202322 -0.0410998 -2.02596e-21)
(0.204393 -0.0346367 1.1343e-20)
(0.205929 -0.0275766 -5.45273e-21)
(0.206861 -0.0200605 -3.87075e-21)
(0.207147 -0.0122508 9.19673e-19)
(0.206771 -0.00432183 -9.10298e-19)
(0.205746 0.00354997 -5.28574e-21)
(0.20411 0.0111961 -1.14866e-20)
(0.201926 0.0184649 4.07434e-20)
(0.199271 0.0252281 2.10356e-21)
(0.196237 0.031385 -3.24951e-20)
(0.19292 0.0368643 -3.96549e-21)
(0.189415 0.0416236 -7.10057e-20)
(0.185813 0.0456471 5.75951e-20)
(0.182198 0.0489418 -5.47848e-20)
(0.178643 0.051533 6.11271e-20)
(0.175203 0.0534571 0)
(0.171928 0.0547632 -5.8921e-20)
(0.168898 0.0555378 5.70454e-20)
(0.166374 0.0560832 1.42078e-20)
(0.16437 -0.066757 1.63421e-20)
(0.166727 -0.067055 -2.14899e-20)
(0.169499 -0.0670115 -1.64516e-20)
(0.172483 -0.0663764 1.99355e-20)
(0.175597 -0.0650552 1.70874e-20)
(0.178775 -0.06299 -3.04155e-20)
(0.181949 -0.0601405 1.73281e-20)
(0.185034 -0.056482 -3.78055e-21)
(0.18794 -0.0520132 0)
(0.190574 -0.0467598 3.47235e-21)
(0.192844 -0.0407773 -2.9326e-21)
(0.194665 -0.0341504 5.07621e-22)
(0.195966 -0.0269913 3.2602e-21)
(0.196694 -0.0194352 -5.33238e-21)
(0.196817 -0.0116336 9.85348e-19)
(0.196326 -0.00374669 -9.80489e-19)
(0.195237 0.00406564 -9.20818e-21)
(0.193586 0.0116513 6.33185e-21)
(0.191429 0.0188734 -1.87038e-21)
(0.188834 0.0256153 -3.94877e-20)
(0.185883 0.0317843 3.53745e-20)
(0.182659 0.0373129 8.31849e-21)
(0.179246 0.0421589 3.83955e-20)
(0.175728 0.0463032 -9.3748e-20)
(0.17218 0.0497472 1.18372e-19)
(0.168669 0.0525091 -5.76801e-20)
(0.165246 0.0546161 -6.62737e-20)
(0.161962 0.0561084 6.41526e-20)
(0.158901 0.057068 6.12866e-20)
(0.15638 0.0578475 -7.78829e-20)
(0.153615 -0.0691354 2.89784e-20)
(0.155963 -0.0689847 2.37221e-21)
(0.158751 -0.0685329 -4.99203e-21)
(0.161708 -0.0674744 -2.38036e-20)
(0.164739 -0.0657235 -2.27119e-21)
(0.16778 -0.0632394 3.05115e-21)
(0.170764 -0.0599997 1.82434e-22)
(0.173616 -0.0559966 0)
(0.176255 -0.0512432 0)
(0.1786 -0.0457772 3.04208e-21)
(0.180575 -0.0396613 -3.70757e-21)
(0.182112 -0.0329824 -5.11247e-22)
(0.183155 -0.0258491 0)
(0.183667 -0.0183868 -1.65932e-21)
(0.183626 -0.0107324 1.05076e-18)
(0.183032 -0.00302773 -1.04567e-18)
(0.1819 0.00458711 -3.8376e-21)
(0.180264 0.0119797 0)
(0.178171 0.0190305 1.8837e-21)
(0.175681 0.0256369 -3.02042e-20)
(0.17286 0.0317156 2.93745e-20)
(0.169779 0.0372044 -4.32289e-21)
(0.16651 0.0420613 0)
(0.163124 0.0462644 3.72464e-22)
(0.159687 0.0498093 1.36492e-20)
(0.15626 0.0527061 -8.75238e-21)
(0.152888 0.0549721 7.21782e-20)
(0.14962 0.0566374 2.88841e-22)
(0.146545 0.0577782 7.91878e-21)
(0.144029 0.0587886 -6.00073e-20)
(0.139818 -0.0700285 -3.0498e-20)
(0.142142 -0.0693793 2.63449e-20)
(0.144916 -0.0684842 0)
(0.147803 -0.0669862 -2.29196e-20)
(0.1507 -0.0648118 2.72395e-20)
(0.153545 -0.0619389 -1.00122e-20)
(0.15628 -0.0583647 1.48292e-20)
(0.158839 -0.0540976 -5.9884e-21)
(0.161154 -0.0491649 0)
(0.163161 -0.0436138 0)
(0.164799 -0.037512 -3.28828e-21)
(0.166022 -0.030945 3.58794e-21)
(0.16679 -0.0240135 0)
(0.167082 -0.0168289 -4.90803e-22)
(0.166886 -0.00950936 1.10681e-18)
(0.166209 -0.00217423 -1.10689e-18)
(0.165067 0.00505997 8.27371e-22)
(0.163488 0.0120837 0)
(0.161512 0.0187976 1.51199e-20)
(0.159184 0.0251153 -1.46864e-20)
(0.156555 0.0309647 0)
(0.153682 0.0362897 0)
(0.150622 0.0410498 4.51727e-20)
(0.147432 0.0452203 -8.39861e-20)
(0.144168 0.048791 3.43317e-20)
(0.14088 0.0517633 -7.45123e-20)
(0.137609 0.054144 8.22116e-20)
(0.134398 0.0559519 0)
(0.131339 0.0572555 -8.13986e-20)
(0.128838 0.0584778 6.45604e-20)
(0.122086 -0.0684932 -3.3398e-20)
(0.124358 -0.0673343 3.25164e-20)
(0.127069 -0.0660012 -3.21485e-20)
(0.129826 -0.0640973 2.21451e-21)
(0.132519 -0.0615634 2.98323e-21)
(0.135096 -0.0583968 3.90936e-20)
(0.13751 -0.0546127 -1.10966e-20)
(0.139708 -0.0502354 -7.70205e-22)
(0.141639 -0.0453036 2.02877e-21)
(0.143257 -0.0398718 -4.53191e-22)
(0.144522 -0.0340081 -1.61218e-21)
(0.145407 -0.0277923 -5.36847e-21)
(0.145894 -0.0213124 8.46513e-21)
(0.145972 -0.0146613 -5.85319e-21)
(0.145645 -0.00793345 1.15652e-18)
(0.144921 -0.00122177 -1.15083e-18)
(0.143818 0.00538452 -1.09287e-20)
(0.142357 0.0118019 2.44102e-20)
(0.140566 0.017954 -1.45351e-20)
(0.138476 0.0237727 -3.87552e-20)
(0.136123 0.0291992 7.89071e-20)
(0.133545 0.0341847 -3.98013e-20)
(0.130781 0.0386912 -5.04129e-21)
(0.127875 0.0426917 4.33211e-20)
(0.12487 0.0461702 -1.23046e-19)
(0.121805 0.0491196 -1.29647e-20)
(0.118711 0.0515361 -6.80926e-21)