/*--------------------------------*- C++ -*----------------------------------*\
  =========                 |
  \\      /  F ield         | OpenFOAM: The Open Source CFD Toolbox
   \\    /   O peration     | Website:  https://openfoam.org
    \\  /    A nd           | Version:  12
     \\/     M anipulation  |
\*---------------------------------------------------------------------------*/
FoamFile
{
    format      ascii;
    class       volSymmTensorField;
    location    "20";
    object      UPrime2Mean;
}
// * * * * * * * * * * * * * * * * * * * * * * * * * * * * * * * * * * * * * //

dimensions      [0 2 -2 0 0 0 0];

internalField   nonuniform List<symmTensor> 
6750
(
(1.16568e-10 5.82921e-09 0 4.48066e-07 0 0)
(1.03404e-09 3.90506e-08 0 4.8217e-06 0 0)
(3.83975e-09 7.94875e-08 0 1.2672e-05 0 0)
(7.71599e-09 1.09446e-07 0 2.24138e-05 0 0)
(1.88342e-08 4.34306e-07 0 3.29936e-05 0 0)
(2.99909e-10 6.68323e-09 0 4.22074e-07 0 0)
(1.06625e-09 6.52189e-08 0 4.74721e-06 0 0)
(3.54167e-09 1.82922e-07 0 1.24138e-05 0 0)
(1.03359e-08 3.86682e-07 0 2.1633e-05 0 0)
(2.62839e-08 7.26582e-07 0 3.12318e-05 0 0)
(2.46304e-10 6.06633e-09 0 3.86514e-07 0 0)
(3.06545e-09 1.11647e-07 0 4.54842e-06 0 0)
(1.21988e-08 3.7024e-07 0 1.19086e-05 0 0)
(3.20331e-08 7.83921e-07 0 2.05434e-05 0 0)
(6.38024e-08 1.29712e-06 0 2.91817e-05 0 0)
(2.0284e-10 5.00804e-09 0 3.34642e-07 0 0)
(5.67564e-09 1.48235e-07 0 4.16783e-06 0 0)
(2.64765e-08 5.31777e-07 0 1.1014e-05 0 0)
(6.86431e-08 1.12684e-06 0 1.89776e-05 0 0)
(1.26836e-07 1.81526e-06 0 2.68287e-05 0 0)
(1.40064e-10 3.71393e-09 0 2.79561e-07 0 0)
(8.00914e-09 1.67842e-07 0 3.68683e-06 0 0)
(4.2491e-08 6.41695e-07 0 9.87083e-06 0 0)
(1.13435e-07 1.38276e-06 0 1.70718e-05 0 0)
(2.09747e-07 2.23763e-06 0 2.41611e-05 0 0)
(7.04738e-11 2.28903e-09 0 2.26868e-07 0 0)
(9.7892e-09 1.73401e-07 0 3.15606e-06 0 0)
(5.86871e-08 7.05643e-07 0 8.57123e-06 0 0)
(1.63724e-07 1.55762e-06 0 1.49137e-05 0 0)
(3.10822e-07 2.56e-06 0 2.11808e-05 0 0)
(2.00243e-11 1.03284e-09 0 1.79178e-07 0 0)
(1.12145e-08 1.70064e-07 0 2.61181e-06 0 0)
(7.52794e-08 7.34049e-07 0 7.19132e-06 0 0)
(2.19793e-07 1.66161e-06 0 1.25961e-05 0 0)
(4.30805e-07 2.78015e-06 0 1.79672e-05 0 0)
(3.58005e-12 9.16748e-11 0 1.37289e-07 0 0)
(1.25276e-08 1.61106e-07 0 2.08034e-06 0 0)
(9.26759e-08 7.325e-07 0 5.79875e-06 0 0)
(2.81712e-07 1.69621e-06 0 1.02219e-05 0 0)
(5.68867e-07 2.88591e-06 0 1.46449e-05 0 0)
(2.3903e-11 -5.19138e-10 0 1.01228e-07 0 0)
(1.38528e-08 1.47955e-07 0 1.58247e-06 0 0)
(1.10742e-07 7.02462e-07 0 4.45748e-06 0 0)
(3.47855e-07 1.65789e-06 0 7.90291e-06 0 0)
(7.20287e-07 2.86146e-06 0 1.13689e-05 0 0)
(7.4427e-11 -8.41999e-10 0 7.08656e-08 0 0)
(1.51997e-08 1.31172e-07 0 1.13567e-06 0 0)
(1.28774e-07 6.44505e-07 0 3.22686e-06 0 0)
(4.14823e-07 1.54419e-06 0 5.74918e-06 0 0)
(8.7634e-07 2.69657e-06 0 8.30035e-06 0 0)
(1.42571e-10 -9.39438e-10 0 4.61116e-08 0 0)
(1.65014e-08 1.1113e-07 0 7.54125e-07 0 0)
(1.45719e-07 5.60517e-07 0 2.15817e-06 0 0)
(4.78056e-07 1.35822e-06 0 3.86068e-06 0 0)
(1.02545e-06 2.3935e-06 0 5.59055e-06 0 0)
(2.13963e-10 -8.73011e-10 0 2.68941e-08 0 0)
(1.7644e-08 8.83281e-08 0 4.47829e-07 0 0)
(1.6039e-07 4.54383e-07 0 1.28955e-06 0 0)
(5.32918e-07 1.1101e-06 0 2.31443e-06 0 0)
(1.15587e-06 1.96951e-06 0 3.35938e-06 0 0)
(2.7454e-10 -6.90234e-10 0 1.30762e-08 0 0)
(1.84892e-08 6.35073e-08 0 2.21974e-07 0 0)
(1.71726e-07 3.31909e-07 0 6.43133e-07 0 0)
(5.75545e-07 8.15653e-07 0 1.15733e-06 0 0)
(1.25801e-06 1.45405e-06 0 1.6828e-06 0 0)
(3.0709e-10 -4.17814e-10 0 4.39003e-09 0 0)
(1.88561e-08 3.76409e-08 0 7.68184e-08 0 0)
(1.78978e-07 2.0008e-07 0 2.24398e-07 0 0)
(6.03505e-07 4.93839e-07 0 4.04696e-07 0 0)
(1.32597e-06 8.83254e-07 0 5.89184e-07 0 0)
(2.8388e-10 -1.29876e-10 0 4.7119e-10 0 0)
(1.83802e-08 1.19221e-08 0 8.02061e-09 0 0)
(1.81902e-07 6.59697e-08 0 2.40658e-08 0 0)
(6.16339e-07 1.63881e-07 0 4.36708e-08 0 0)
(1.35831e-06 2.94078e-07 0 6.37661e-08 0 0)
(2.83261e-10 4.18999e-11 0 6.9445e-10 0 0)
(1.83825e-08 -1.24753e-08 0 8.6179e-09 0 0)
(1.81888e-07 -6.71489e-08 0 2.4872e-08 0 0)
(6.16305e-07 -1.65156e-07 0 4.4369e-08 0 0)
(1.35823e-06 -2.94915e-07 0 6.42108e-08 0 0)
(3.0543e-10 3.40871e-10 0 5.06521e-09 0 0)
(1.88383e-08 -3.81871e-08 0 7.86624e-08 0 0)
(1.78929e-07 -2.01234e-07 0 2.26857e-07 0 0)
(6.03391e-07 -4.95064e-07 0 4.06808e-07 0 0)
(1.32571e-06 -8.84002e-07 0 5.90509e-07 0 0)
(2.71837e-10 6.27585e-10 0 1.41987e-08 0 0)
(1.84569e-08 -6.40066e-08 0 2.25085e-07 0 0)
(1.71644e-07 -3.32982e-07 0 6.47262e-07 0 0)
(5.75359e-07 -8.1675e-07 0 1.16084e-06 0 0)
(1.2576e-06 -1.4546e-06 0 1.68493e-06 0 0)
(2.10779e-10 8.30437e-10 0 2.84261e-08 0 0)
(1.76023e-08 -8.87511e-08 0 4.52186e-07 0 0)
(1.60289e-07 -4.5533e-07 0 1.29531e-06 0 0)
(5.32695e-07 -1.11102e-06 0 2.31923e-06 0 0)
(1.15535e-06 -1.96978e-06 0 3.36213e-06 0 0)
(1.39595e-10 9.21608e-10 0 4.79898e-08 0 0)
(1.64584e-08 -1.1146e-07 0 7.59675e-07 0 0)
(1.45622e-07 -5.61324e-07 0 2.16549e-06 0 0)
(4.77842e-07 -1.35894e-06 0 3.86664e-06 0 0)
(1.02487e-06 -2.39343e-06 0 5.59366e-06 0 0)
(7.24662e-11 8.50343e-10 0 7.30066e-08 0 0)
(1.51633e-08 -1.31404e-07 0 1.14235e-06 0 0)
(1.28704e-07 -6.45181e-07 0 3.23568e-06 0 0)
(4.14654e-07 -1.54473e-06 0 5.75616e-06 0 0)
(8.75714e-07 -2.6961e-06 0 8.30355e-06 0 0)
(2.37333e-11 5.52503e-10 0 1.03535e-07 0 0)
(1.38251e-08 -1.48069e-07 0 1.59019e-06 0 0)
(1.10688e-07 -7.02952e-07 0 4.4677e-06 0 0)
(3.47734e-07 -1.6582e-06 0 7.91048e-06 0 0)
(7.19691e-07 -2.86057e-06 0 1.13712e-05 0 0)
(5.65809e-12 -3.60645e-11 0 1.39653e-07 0 0)
(1.2503e-08 -1.61039e-07 0 2.08891e-06 0 0)
(9.25967e-08 -7.32601e-07 0 5.81024e-06 0 0)
(2.81544e-07 -1.69601e-06 0 1.02299e-05 0 0)
(5.68303e-07 -2.8846e-06 0 1.46458e-05 0 0)
(2.4269e-11 -9.62748e-10 0 1.8149e-07 0 0)
(1.11965e-08 -1.69824e-07 0 2.62095e-06 0 0)
(7.5197e-08 -7.33776e-07 0 7.2039e-06 0 0)
(2.19673e-07 -1.6612e-06 0 1.26056e-05 0 0)
(4.30313e-07 -2.77898e-06 0 1.79712e-05 0 0)
(7.64692e-11 -2.21803e-09 0 2.29052e-07 0 0)
(9.78667e-09 -1.73091e-07 0 3.16557e-06 0 0)
(5.86617e-08 -7.05342e-07 0 8.58485e-06 0 0)
(1.63767e-07 -1.55766e-06 0 1.4925e-05 0 0)
(3.10511e-07 -2.55943e-06 0 2.11878e-05 0 0)
(1.46922e-10 -3.65056e-09 0 2.81585e-07 0 0)
(8.01633e-09 -1.67487e-07 0 3.69661e-06 0 0)
(4.24972e-08 -6.41372e-07 0 9.88589e-06 0 0)
(1.13522e-07 -1.38298e-06 0 1.70863e-05 0 0)
(2.09458e-07 -2.23716e-06 0 2.41731e-05 0 0)
(2.0932e-10 -4.96017e-09 0 3.36508e-07 0 0)
(5.68561e-09 -1.47873e-07 0 4.17775e-06 0 0)
(2.64931e-08 -5.31465e-07 0 1.10303e-05 0 0)
(6.873e-08 -1.12735e-06 0 1.89962e-05 0 0)
(1.26532e-07 -1.81452e-06 0 2.68471e-05 0 0)
(2.50771e-10 -6.03439e-09 0 3.88245e-07 0 0)
(3.0672e-09 -1.1125e-07 0 4.55828e-06 0 0)
(1.21942e-08 -3.69838e-07 0 1.1926e-05 0 0)
(3.20275e-08 -7.84023e-07 0 2.05657e-05 0 0)
(6.34782e-08 -1.29483e-06 0 2.92076e-05 0 0)
(3.01508e-10 -6.67014e-09 0 4.23629e-07 0 0)
(1.05622e-09 -6.47562e-08 0 4.75658e-06 0 0)
(3.5063e-09 -1.82231e-07 0 1.24315e-05 0 0)
(1.02471e-08 -3.8599e-07 0 2.16581e-05 0 0)
(2.61324e-08 -7.21679e-07 0 3.12644e-05 0 0)
(1.14696e-10 -5.76927e-09 0 4.49111e-07 0 0)
(1.02725e-09 -3.8184e-08 0 4.82855e-06 0 0)
(3.8398e-09 -7.76013e-08 0 1.2686e-05 0 0)
(7.7752e-09 -1.05887e-07 0 2.24356e-05 0 0)
(1.91893e-08 -4.24602e-07 0 3.30247e-05 0 0)
(3.48267e-07 4.12718e-06 0 6.08033e-05 0 0)
(8.12284e-07 7.27021e-06 0 7.48544e-05 0 0)
(1.33123e-06 1.0163e-05 0 8.71676e-05 0 0)
(1.74278e-06 1.23048e-05 8.4875e-25 9.74762e-05 7.23579e-24 1.23331e-41)
(2.05707e-06 1.38686e-05 0 0.00010541 0 0)
(2.287e-06 1.49288e-05 0 0.000110829 0 0)
(2.42845e-06 1.54629e-05 -7.22844e-23 0.000113595 -4.83616e-22 4.66859e-38)
(2.47954e-06 1.5448e-05 7.62333e-23 0.000113425 4.86745e-22 4.75237e-38)
(2.44534e-06 1.48824e-05 5.91389e-25 0.000109897 3.63737e-24 2.6346e-42)
(2.33875e-06 1.37958e-05 3.66995e-23 0.000102629 2.16843e-22 9.78157e-39)
(2.18165e-06 1.22737e-05 -1.23735e-24 9.14993e-05 -6.14465e-24 2.35558e-41)
(2.00266e-06 1.04644e-05 -1.33167e-24 7.68725e-05 -5.9838e-24 2.77519e-41)
(1.83128e-06 8.55601e-06 -1.65009e-23 5.97547e-05 -7.88242e-23 2.29254e-39)
(1.69152e-06 6.72754e-06 -1.44727e-23 4.17976e-05 -5.99305e-23 1.80312e-39)
(1.59871e-06 5.08877e-06 -2.99131e-23 2.50935e-05 -9.78887e-23 7.67071e-39)
(1.56163e-06 3.63642e-06 2.92461e-23 1.17816e-05 6.05178e-23 7.67079e-39)
(1.58969e-06 2.25008e-06 -1.08895e-23 3.564e-06 -8.6731e-24 9.54746e-40)
(1.69663e-06 7.41317e-07 -9.69316e-24 1.29434e-06 4.83729e-24 6.20125e-40)
(1.90043e-06 -1.06776e-06 1.3022e-24 4.78479e-06 -2.34889e-24 2.87908e-41)
(2.21601e-06 -3.26598e-06 1.25532e-24 1.28957e-05 -3.31399e-24 2.47523e-41)
(2.64225e-06 -5.80878e-06 2.2593e-23 2.38667e-05 -7.23969e-23 2.07506e-39)
(3.15418e-06 -8.52363e-06 -3.48477e-25 3.57535e-05 1.25104e-24 3.83031e-43)
(3.70255e-06 -1.11579e-05 4.3632e-23 4.68249e-05 -1.67121e-22 4.46255e-39)
(4.22202e-06 -1.34434e-05 -4.51317e-23 5.58145e-05 1.79805e-22 4.38386e-39)
(4.64458e-06 -1.51544e-05 0 6.19954e-05 0 0)
(4.91506e-06 -1.61528e-05 0 6.51169e-05 0 0)
(5.00094e-06 -1.64016e-05 -6.00875e-25 6.53239e-05 2.50049e-24 5.75408e-43)
(4.88083e-06 -1.59182e-05 0 6.30722e-05 0 0)
(4.5369e-06 -1.47349e-05 0 5.90929e-05 0 0)
(4.0916e-06 -1.32059e-05 0 5.40889e-05 0 0)
(5.46439e-07 5.66467e-06 0 6.92275e-05 0 0)
(1.03142e-06 8.71016e-06 0 8.29752e-05 0 0)
(1.4831e-06 1.11579e-05 0 9.38504e-05 0 0)
(1.8392e-06 1.29542e-05 -8.80217e-25 0.000102471 -7.19297e-24 1.09648e-41)
(2.12058e-06 1.42736e-05 0 0.000108859 0 0)
(2.32268e-06 1.51169e-05 0 0.000112965 0 0)
(2.43554e-06 1.54428e-05 7.11087e-23 0.000114605 4.72054e-22 4.02336e-38)
(2.45823e-06 1.52297e-05 -7.5234e-23 0.000113452 -4.80646e-22 4.2146e-38)
(2.39911e-06 1.44827e-05 -5.71178e-25 0.000109099 -3.53194e-24 2.32043e-42)
(2.27553e-06 1.32502e-05 0 0.000101226 0 0)
(2.11269e-06 1.16383e-05 0 8.97933e-05 0 0)
(1.93954e-06 9.80755e-06 -3.02992e-23 7.52173e-05 -1.67219e-22 6.94689e-39)
(1.78235e-06 7.94605e-06 2.87887e-23 5.84838e-05 1.45015e-22 6.99064e-39)
(1.65912e-06 6.22154e-06 0 4.11264e-05 0 0)
(1.57819e-06 4.72846e-06 -7.79384e-23 2.50378e-05 -2.68369e-22 5.67748e-38)
(1.54272e-06 3.45133e-06 7.56645e-23 1.21337e-05 1.65415e-22 5.6728e-38)
(1.55629e-06 2.26695e-06 0 3.94958e-06 0 0)
(1.63129e-06 9.84226e-07 1.86538e-23 1.29699e-06 -1.01877e-23 2.81446e-39)
(1.78829e-06 -5.83067e-07 -1.98339e-23 4.08996e-06 3.50683e-23 2.84267e-39)
(2.04674e-06 -2.5457e-06 0 1.13978e-05 0 0)
(2.41527e-06 -4.89336e-06 0 2.16989e-05 0 0)
(2.88149e-06 -7.49256e-06 3.14444e-25 3.32414e-05 -1.17827e-24 3.37256e-43)
(3.40891e-06 -1.01223e-05 -3.92669e-23 4.43914e-05 1.55541e-22 4.11036e-39)
(3.94199e-06 -1.25308e-05 4.16845e-23 5.38788e-05 -1.7115e-22 4.18279e-39)
(4.41717e-06 -1.44905e-05 0 6.08994e-05 0 0)
(4.77669e-06 -1.58383e-05 0 6.50916e-05 0 0)
(4.98141e-06 -1.65008e-05 5.74915e-25 6.64641e-05 -2.41586e-24 5.11364e-43)
(5.00827e-06 -1.64736e-05 0 6.52939e-05 0 0)
(4.82074e-06 -1.57281e-05 0 6.20677e-05 0 0)
(4.43393e-06 -1.43173e-05 0 5.72191e-05 0 0)
(7.72085e-07 7.16012e-06 0 7.53427e-05 0 0)
(1.21094e-06 9.74664e-06 0 8.74132e-05 0 0)
(1.61997e-06 1.18741e-05 0 9.68976e-05 0 0)
(1.9561e-06 1.34936e-05 5.95743e-23 0.00010446 4.66069e-22 4.43143e-38)
(2.21747e-06 1.46527e-05 -6.61614e-23 0.000110048 -4.83526e-22 4.53671e-38)
(2.39031e-06 1.53064e-05 7.11619e-23 0.000113526 4.96593e-22 4.49782e-38)
(2.46703e-06 1.54126e-05 -7.42204e-23 0.000114643 -5.03399e-22 4.58282e-38)
(2.45146e-06 1.49581e-05 1.14389e-24 0.000113034 7.64965e-24 1.05262e-41)
(2.35808e-06 1.39653e-05 0 0.000108307 0 0)
(2.21112e-06 1.25085e-05 0 0.000100188 0 0)
(2.04135e-06 1.07237e-05 -9.26112e-25 8.86821e-05 -6.29132e-24 8.43193e-42)
(1.87944e-06 8.79847e-06 0 7.42301e-05 0 0)
(1.74808e-06 6.93878e-06 0 5.77944e-05 0 0)
(1.65661e-06 5.318e-06 -1.52423e-25 4.08317e-05 -9.08602e-25 3.87012e-43)
(1.60161e-06 4.02352e-06 -9.30677e-23 2.5117e-05 -4.53667e-22 1.62177e-37)
(1.57378e-06 3.0234e-06 8.80412e-23 1.24401e-05 2.84225e-22 1.62175e-37)
(1.56973e-06 2.16888e-06 1.15133e-25 4.24575e-06 1.46301e-25 2.54916e-43)
(1.59956e-06 1.23974e-06 0 1.32381e-06 0 0)
(1.6875e-06 1.50321e-08 0 3.64647e-06 0 0)
(1.86519e-06 -1.65302e-06 5.18815e-25 1.04032e-05 -1.63775e-24 2.44091e-42)
(2.1571e-06 -3.79024e-06 0 2.02142e-05 0 0)
(2.56758e-06 -6.29188e-06 0 3.14473e-05 0 0)
(3.07421e-06 -8.95254e-06 -6.13032e-25 4.25366e-05 2.60574e-24 1.29333e-42)
(3.62991e-06 -1.15194e-05 -3.97406e-23 5.22219e-05 1.69146e-22 4.10931e-39)
(4.17249e-06 -1.37486e-05 4.17231e-23 5.96679e-05 -1.77967e-22 4.03309e-39)
(4.63787e-06 -1.54485e-05 -4.11344e-23 6.44692e-05 1.72595e-22 3.01265e-39)
(4.97434e-06 -1.65084e-05 4.12485e-23 6.65786e-05 -1.72558e-22 2.9323e-39)
(5.14987e-06 -1.69009e-05 0 6.6208e-05 0 0)
(5.13015e-06 -1.66079e-05 0 6.37806e-05 0 0)
(4.89178e-06 -1.56005e-05 0 5.96808e-05 0 0)
(1.01285e-06 8.59023e-06 0 8.05248e-05 0 0)
(1.42028e-06 1.08454e-05 -1.09429e-22 9.11952e-05 -9.31522e-22 2.07348e-37)
(1.81315e-06 1.27759e-05 6.42482e-23 9.96372e-05 4.98337e-22 5.49199e-38)
(2.13388e-06 1.4234e-05 1.41538e-22 0.000106378 1.0318e-21 2.14421e-37)
(2.36752e-06 1.5195e-05 -1.50752e-22 0.000111294 -1.05373e-21 2.10781e-37)
(2.50169e-06 1.56058e-05 7.71733e-23 0.00011421 5.27127e-22 5.10553e-38)
(2.53454e-06 1.54313e-05 0 0.00011484 0 0)
(2.47692e-06 1.46683e-05 2.29424e-24 0.000112808 1.59117e-23 4.46188e-41)
(2.35241e-06 1.33594e-05 0 0.000107742 0 0)
(2.19488e-06 1.16099e-05 0 9.94029e-05 0 0)
(2.04207e-06 9.59235e-06 2.72207e-23 8.78313e-05 2.18216e-22 1.01708e-38)
(1.92559e-06 7.52916e-06 -2.16563e-23 7.34832e-05 -1.86242e-22 9.06597e-39)
(1.86104e-06 5.65231e-06 0 5.73004e-05 0 0)
(1.84293e-06 4.14663e-06 1.02746e-25 4.06733e-05 9.47649e-25 4.26574e-43)
(1.84843e-06 3.09413e-06 -7.72429e-23 2.52752e-05 -6.44568e-22 3.26546e-37)
(1.84948e-06 2.44116e-06 6.77793e-23 1.27865e-05 4.12168e-22 3.2654e-37)
(1.82918e-06 2.00468e-06 -6.67635e-26 4.5705e-06 -1.69814e-25 2.80978e-43)
(1.79452e-06 1.52059e-06 0 1.39477e-06 0 0)
(1.77854e-06 7.19655e-07 -1.06356e-23 3.28072e-06 3.06279e-23 3.07362e-39)
(1.83058e-06 -5.9347e-07 1.22881e-23 9.5237e-06 -5.02283e-23 2.6919e-39)
(1.99854e-06 -2.48589e-06 4.68523e-25 1.88736e-05 -2.10076e-24 2.30774e-42)
(2.31046e-06 -4.88192e-06 0 2.98129e-05 0 0)
(2.763e-06 -7.58841e-06 -1.16698e-24 4.08469e-05 5.33404e-24 6.33527e-42)
(3.32019e-06 -1.03466e-05 0 5.07319e-05 0 0)
(3.92182e-06 -1.28901e-05 4.06829e-23 5.8603e-05 -1.7637e-22 3.96789e-39)
(4.4969e-06 -1.4993e-05 -8.30443e-23 6.39978e-05 3.50133e-22 1.39068e-38)
(4.97902e-06 -1.65026e-05 8.27555e-23 6.6803e-05 -3.38475e-22 1.16089e-38)
(5.31893e-06 -1.73511e-05 3.94419e-23 6.71585e-05 -1.5482e-22 2.02495e-39)
(5.47621e-06 -1.75139e-05 -8.0311e-23 6.54247e-05 3.11021e-22 9.14244e-39)
(5.40934e-06 -1.69487e-05 0 6.20043e-05 0 0)
(1.30347e-06 1.01255e-05 0 8.51972e-05 0 0)
(1.70126e-06 1.21649e-05 1.35572e-22 9.47208e-05 1.01568e-21 2.38586e-37)
(2.08152e-06 1.39114e-05 -1.47571e-22 0.000102291 -1.03822e-21 2.30615e-37)
(2.37739e-06 1.51657e-05 0 0.000108329 0 0)
(2.57217e-06 1.5878e-05 0 0.000112674 0 0)
(2.65929e-06 1.59979e-05 2.53352e-24 0.000115105 1.71549e-23 5.2307e-41)
(2.64461e-06 1.54932e-05 0 0.000115311 0 0)
(2.54959e-06 1.43731e-05 -2.27445e-24 0.000112908 -1.66277e-23 4.90049e-41)
(2.41054e-06 1.27051e-05 3.17257e-23 0.000107539 2.51841e-22 1.13447e-38)
(2.27322e-06 1.06293e-05 -2.71924e-23 9.89923e-05 -2.42036e-22 1.15079e-38)
(2.18207e-06 8.35734e-06 -2.13393e-23 8.73416e-05 -2.20713e-22 1.04111e-38)
(2.1666e-06 6.14721e-06 1.51614e-23 7.30587e-05 1.94244e-22 9.86865e-39)
(2.22957e-06 4.25614e-06 2.9703e-25 5.70684e-05 5.01883e-24 8.29482e-42)
(2.34321e-06 2.87877e-06 -7.9966e-26 4.07053e-05 -1.98622e-24 1.86013e-42)
(2.45726e-06 2.08973e-06 -2.15638e-23 2.55551e-05 -8.44666e-22 5.54284e-37)
(2.51771e-06 1.81204e-06 5.7301e-24 1.32028e-05 5.49714e-22 5.54276e-37)
(2.48982e-06 1.82639e-06 1.56489e-26 4.9409e-06 3.8756e-25 1.25676e-42)
(2.37582e-06 1.82314e-06 -7.83479e-26 1.51789e-06 1.51452e-25 4.32128e-42)
(2.21885e-06 1.48269e-06 4.92177e-24 2.99819e-06 -2.93826e-23 3.45812e-39)
(2.09106e-06 5.59168e-07 -7.7356e-24 8.77136e-06 5.1509e-23 3.22364e-39)
(2.07075e-06 -1.05906e-06 -1.1236e-23 1.77039e-05 6.80145e-23 2.58854e-39)
(2.21758e-06 -3.32845e-06 1.43949e-23 2.83836e-05 -8.1916e-23 2.39452e-39)
(2.55472e-06 -6.0707e-06 1.04503e-24 3.93826e-05 -5.47024e-24 6.95801e-42)
(3.06326e-06 -9.02266e-06 0 4.94764e-05 0 0)
(3.68876e-06 -1.18966e-05 -1.29056e-24 5.77746e-05 5.82741e-24 4.99047e-42)
(4.35542e-06 -1.44322e-05 0 6.37609e-05 0 0)
(4.98303e-06 -1.64357e-05 0 6.72502e-05 0 0)
(5.50254e-06 -1.77947e-05 -8.80241e-23 6.83251e-05 3.37819e-22 1.08039e-38)
(5.85939e-06 -1.84592e-05 8.62718e-23 6.72587e-05 -3.18885e-22 9.87231e-39)
(5.99381e-06 -1.83767e-05 0 6.44349e-05 0 0)
(1.6773e-06 1.18573e-05 1.22223e-22 8.94435e-05 9.89765e-22 2.35418e-37)
(2.07504e-06 1.37242e-05 -2.40413e-22 9.79849e-05 -1.60144e-21 5.79641e-37)
(2.43594e-06 1.52636e-05 8.50472e-23 0.000104845 5.46601e-22 6.24193e-38)
(2.69712e-06 1.62804e-05 0 0.000110309 0 0)
(2.8451e-06 1.67099e-05 8.75615e-23 0.000114209 5.68375e-22 5.83756e-38)
(2.88186e-06 1.65038e-05 -8.35742e-23 0.000116261 -5.62596e-22 5.61675e-38)
(2.82475e-06 1.56389e-05 7.6454e-23 0.000116121 5.48773e-22 5.12795e-38)
(2.70967e-06 1.41391e-05 -7.13917e-23 0.000113405 -5.64469e-22 5.57668e-38)
(2.58838e-06 1.21e-05 0 0.000107765 0 0)
(2.51871e-06 9.69778e-06 -1.399e-24 9.90182e-05 -1.56771e-23 4.68374e-41)
(2.54931e-06 7.18076e-06 1.48382e-23 8.72675e-05 2.24265e-22 1.06637e-38)
(2.70254e-06 4.83802e-06 -3.79871e-24 7.3001e-05 -1.0537e-22 2.96113e-39)
(2.9618e-06 2.94599e-06 1.12727e-25 5.71326e-05 -1.37446e-23 7.50938e-41)
(3.27003e-06 1.70369e-06 2.00433e-24 4.09514e-05 -6.62049e-23 2.08441e-39)
(3.5432e-06 1.17529e-06 7.20415e-23 2.59711e-05 -1.05752e-21 8.51171e-37)
(3.69634e-06 1.26075e-06 -9.60297e-23 1.36967e-05 6.99091e-22 8.51082e-37)
(3.67355e-06 1.70801e-06 3.62612e-24 5.36085e-06 -1.42881e-23 1.41054e-39)
(3.47073e-06 2.16756e-06 -7.50125e-25 1.69616e-06 -5.3898e-25 4.89587e-41)
(3.14135e-06 2.27505e-06 4.75505e-25 2.8045e-06 1.30194e-23 8.20069e-40)
(2.78261e-06 1.73799e-06 2.08512e-24 8.15739e-06 -5.29292e-23 3.82853e-39)
(2.50775e-06 4.01128e-07 4.14242e-25 1.67239e-05 -4.27352e-24 1.17225e-41)
(2.41429e-06 -1.72651e-06 0 2.71852e-05 0 0)
(2.55935e-06 -4.48617e-06 -2.84689e-23 3.81747e-05 1.75142e-22 7.64415e-39)
(2.94846e-06 -7.61588e-06 3.70853e-23 4.84856e-05 -2.00088e-22 7.95612e-39)
(3.53917e-06 -1.08116e-05 -4.09758e-23 5.72063e-05 1.95469e-22 5.65467e-39)
(4.25537e-06 -1.37839e-05 4.49669e-23 6.37687e-05 -1.96615e-22 5.17013e-39)
(5.00559e-06 -1.62972e-05 2.92088e-24 6.7926e-05 -1.17194e-23 1.58477e-41)
(5.70201e-06 -1.81991e-05 4.73414e-23 6.971e-05 -1.77631e-22 3.08701e-39)
(6.27266e-06 -1.94099e-05 -1.41176e-22 6.93239e-05 5.00508e-22 2.36299e-38)
(6.64207e-06 -1.98688e-05 9.78653e-23 6.70667e-05 -3.43652e-22 1.11103e-38)
(2.16456e-06 1.3829e-05 -7.37583e-23 9.33514e-05 -5.07595e-22 5.97099e-38)
(2.56265e-06 1.55309e-05 9.84635e-23 0.000101094 5.88533e-22 7.62317e-38)
(2.89613e-06 1.68463e-05 1.02441e-22 0.000107397 6.07012e-22 7.37218e-38)
(3.1153e-06 1.76042e-05 -1.05128e-22 0.000112436 -6.31611e-22 7.57139e-38)
(3.214e-06 1.77334e-05 9.52807e-23 0.000115994 5.98947e-22 6.32373e-38)
(3.2055e-06 1.71859e-05 -9.64905e-23 0.000117755 -6.50025e-22 7.30996e-38)
(3.12264e-06 1.59534e-05 -2.52403e-24 0.00011733 -1.89454e-23 5.91655e-41)
(3.01845e-06 1.40796e-05 0 0.000114332 0 0)
(2.96063e-06 1.16879e-05 2.59953e-23 0.000108432 2.78549e-22 1.3435e-38)
(3.01685e-06 8.98832e-06 8.38509e-25 9.94715e-05 9.08049e-24 6.98935e-42)
(3.23532e-06 6.25994e-06 6.11033e-25 8.75852e-05 7.43106e-24 4.72511e-42)
(3.62529e-06 3.81426e-06 3.16566e-25 7.328e-05 -2.21499e-22 1.25184e-38)
(4.14469e-06 1.9378e-06 3.25548e-24 5.74644e-05 -8.16948e-23 2.1198e-39)
(4.70219e-06 8.26595e-07 -9.90146e-24 4.13919e-05 1.07041e-22 5.27438e-39)
(5.1767e-06 5.30999e-07 1.99609e-22 2.65148e-05 -1.31009e-21 1.27011e-36)
(5.45044e-06 9.29787e-07 -2.24725e-22 1.42694e-05 8.44226e-22 1.17319e-36)
(5.44543e-06 1.74518e-06 -1.1872e-23 5.83635e-06 2.36618e-23 3.45326e-39)
(5.15049e-06 2.59821e-06 7.74086e-24 1.93416e-06 3.33938e-25 1.82844e-39)
(4.62857e-06 3.09099e-06 8.12908e-24 2.69749e-06 2.70134e-23 4.30375e-39)
(4.00162e-06 2.89374e-06 -6.01293e-25 7.67068e-06 -1.60536e-25 3.45863e-42)
(3.4186e-06 1.81271e-06 -5.24562e-25 1.59147e-05 1.72191e-25 3.27562e-42)
(3.01781e-06 -1.77538e-07 7.10431e-24 2.61954e-05 -8.52721e-23 3.02916e-39)
(2.89532e-06 -2.94228e-06 0 3.72026e-05 0 0)
(3.08773e-06 -6.22806e-06 1.02031e-24 4.77469e-05 -6.05929e-24 7.95419e-42)
(3.57159e-06 -9.72294e-06 -3.62163e-23 5.68972e-05 1.83733e-22 5.2763e-39)
(4.2769e-06 -1.31164e-05 4.55609e-23 6.40318e-05 -2.04511e-22 5.87912e-39)
(5.10616e-06 -1.61357e-05 -4.80626e-23 6.88609e-05 1.93008e-22 4.1808e-39)
(5.95457e-06 -1.85858e-05 4.89063e-23 7.13493e-05 -1.80879e-22 3.59386e-39)
(6.73369e-06 -2.03655e-05 4.86597e-23 7.16508e-05 -1.66984e-22 2.57907e-39)
(7.35822e-06 -2.14143e-05 -5.63433e-23 6.99485e-05 1.87811e-22 3.31868e-39)
(2.80205e-06 1.6087e-05 0 9.703e-05 0 0)
(3.19552e-06 1.76158e-05 1.00704e-22 0.000104183 5.45234e-22 6.23433e-38)
(3.49517e-06 1.86983e-05 -1.25017e-22 0.000110086 -6.85412e-22 9.26299e-38)
(3.67127e-06 1.91947e-05 1.1601e-22 0.00011482 6.60678e-22 7.90158e-38)
(3.72675e-06 1.90242e-05 -1.05316e-22 0.000118114 -6.41752e-22 7.18874e-38)
(3.68992e-06 1.81449e-05 8.85877e-23 0.000119628 5.97281e-22 5.86788e-38)
(3.61153e-06 1.65637e-05 -7.77896e-23 0.000118941 -6.04283e-22 6.03006e-38)
(3.56235e-06 1.43501e-05 -4.10486e-24 0.000115661 -3.90792e-23 2.49811e-40)
(3.62392e-06 1.16534e-05 -1.44681e-24 0.000109479 -1.87128e-23 5.94661e-41)
(3.8692e-06 8.71127e-06 -7.919e-25 0.00010027 -1.75062e-23 5.6048e-41)
(4.34e-06 5.82462e-06 -1.41807e-25 8.82026e-05 -1.58774e-23 5.23473e-41)
(5.0264e-06 3.31591e-06 -2.32741e-25 7.38067e-05 6.98481e-24 1.20564e-41)
(5.85619e-06 1.47042e-06 7.9303e-24 5.79904e-05 -9.83782e-23 3.01309e-39)
(6.7015e-06 4.72746e-07 -6.13113e-24 4.19764e-05 4.00338e-23 7.45677e-40)
(7.40425e-06 3.56181e-07 3.2682e-22 2.71613e-05 -1.49857e-21 1.60093e-36)
(7.81552e-06 9.81622e-07 -3.83214e-22 1.49172e-05 1.0553e-21 1.71945e-36)
(7.83693e-06 2.05504e-06 -5.05769e-24 6.37526e-06 8.46916e-24 3.49061e-40)
(7.45078e-06 3.18187e-06 9.38042e-24 2.23928e-06 -8.32047e-25 1.24238e-39)
(6.7284e-06 3.94609e-06 -4.62621e-25 2.67338e-06 -8.35261e-25 5.0159e-42)
(5.8141e-06 3.99424e-06 -1.09759e-24 7.28934e-06 -6.3689e-24 6.81668e-41)
(4.89014e-06 3.10322e-06 -1.40846e-25 1.52347e-05 -4.37218e-24 1.44932e-41)
(4.13446e-06 1.21619e-06 2.5229e-25 2.53566e-05 -5.26686e-24 1.22343e-41)
(3.68351e-06 -1.55912e-06 1.23152e-24 3.64e-05 -1.17769e-23 4.11719e-41)
(3.6091e-06 -4.98511e-06 -3.13449e-23 4.71939e-05 2.09515e-22 9.20623e-39)
(3.91258e-06 -8.75318e-06 4.15812e-23 5.67865e-05 -2.25234e-22 8.91858e-39)
(4.53726e-06 -1.25375e-05 -4.49219e-23 6.45135e-05 2.04266e-22 5.6659e-39)
(5.38657e-06 -1.60419e-05 4.86928e-23 7.00351e-05 -1.95905e-22 4.87142e-39)
(6.34426e-06 -1.90334e-05 -4.71178e-23 7.32518e-05 1.7093e-22 2.9756e-39)
(7.3047e-06 -2.13809e-05 6.14809e-23 7.42588e-05 -2.05094e-22 4.27207e-39)
(8.17727e-06 -2.304e-05 0 7.31303e-05 0 0)
(3.63793e-06 1.86846e-05 0 0.000100632 0 0)
(4.02354e-06 2.00392e-05 7.87846e-24 0.000107372 3.8788e-23 3.06316e-40)
(4.29015e-06 2.08995e-05 -1.09669e-22 0.000113013 -5.60157e-22 5.85279e-38)
(4.43144e-06 2.11471e-05 1.51879e-24 0.000117512 7.21302e-24 3.50334e-41)
(4.46229e-06 2.06961e-05 1.15394e-22 0.000120584 6.81175e-22 7.8173e-38)
(4.42916e-06 1.95188e-05 6.36212e-24 0.00012185 4.25782e-23 2.92744e-40)
(4.40084e-06 1.76378e-05 5.3141e-24 0.000120885 4.25286e-23 2.83837e-40)
(4.46401e-06 1.51473e-05 -2.80032e-23 0.000117287 -2.86318e-22 1.28778e-38)
(4.70954e-06 1.22202e-05 2.22421e-23 0.000110776 3.41029e-22 1.9436e-38)
(5.20966e-06 9.11277e-06 6.76774e-27 0.000101268 -7.82621e-26 5.54606e-46)
(5.99324e-06 6.1358e-06 1.27059e-24 8.89729e-05 -1.3279e-22 3.50722e-39)
(7.02575e-06 3.60944e-06 -7.1515e-24 7.44482e-05 1.20953e-22 3.54944e-39)
(8.20195e-06 1.80523e-06 4.61837e-24 5.86038e-05 -4.28812e-23 5.55635e-40)
(9.3575e-06 8.87522e-07 -7.43981e-24 4.26316e-05 4.10065e-23 7.35888e-40)
(1.03001e-05 8.69809e-07 4.63001e-22 2.78715e-05 -1.78866e-21 2.19044e-36)
(1.08538e-05 1.59953e-06 -5.16866e-22 1.56295e-05 1.23094e-21 2.1904e-36)
(1.09038e-05 2.77752e-06 -7.05407e-24 6.98436e-06 9.84199e-24 4.44647e-40)
(1.04277e-05 4.00968e-06 7.51145e-24 2.62206e-06 -1.37442e-24 5.54975e-40)
(9.50475e-06 4.87997e-06 -8.47537e-24 2.73286e-06 -1.12887e-23 1.1488e-39)
(8.29853e-06 5.0283e-06 8.2951e-24 6.99371e-06 3.25665e-23 1.99752e-39)
(7.02028e-06 4.21494e-06 1.529e-26 1.46383e-05 2.76474e-26 6.15375e-46)
(5.88354e-06 2.35811e-06 2.2485e-24 2.45971e-05 -8.36057e-23 3.20258e-39)
(5.06294e-06 -4.61968e-07 -9.46516e-24 3.5674e-05 1.11771e-22 3.93424e-39)
(4.66633e-06 -4.03016e-06 -1.81259e-24 4.67201e-05 1.28938e-23 3.82468e-41)
(4.72372e-06 -8.05e-06 -2.43575e-24 5.6764e-05 1.34488e-23 3.15866e-41)
(5.19741e-06 -1.21912e-05 4.67209e-23 6.51114e-05 -2.11865e-22 6.31817e-39)
(5.99843e-06 -1.61444e-05 -1.67813e-24 7.13524e-05 7.67225e-24 3.91166e-41)
(7.00722e-06 -1.96537e-05 -6.69605e-23 7.53399e-05 2.37344e-22 6.38381e-39)
(8.10415e-06 -2.25574e-05 0 7.70972e-05 0 0)
(9.18699e-06 -2.48227e-05 0 7.66038e-05 0 0)
(4.74374e-06 2.17031e-05 0 0.000104291 0 0)
(5.12727e-06 2.28984e-05 -1.54985e-22 0.000110746 -6.96163e-22 9.44464e-38)
(5.37218e-06 2.35573e-05 1.54605e-24 0.000116205 6.13869e-24 3.24143e-41)
(5.50168e-06 2.35842e-05 1.67556e-24 0.000120501 7.55712e-24 3.89287e-41)
(5.54571e-06 2.29005e-05 2.46037e-22 0.000123339 1.39675e-21 3.12337e-37)
(5.56808e-06 2.14891e-05 -1.11618e-22 0.000124315 -7.32828e-22 8.36594e-38)
(5.65424e-06 1.93867e-05 -5.64325e-24 0.000123007 -4.50859e-23 3.10061e-40)
(5.90348e-06 1.67083e-05 0 0.000119022 0 0)
(6.40991e-06 1.36478e-05 1.8945e-23 0.000112115 3.12474e-22 1.54365e-38)
(7.23815e-06 1.04691e-05 -6.20673e-24 0.000102253 -3.00971e-22 1.58075e-38)
(8.39772e-06 7.47916e-06 -2.63766e-24 8.96946e-05 1.41304e-22 3.85596e-39)
(9.82494e-06 4.98096e-06 9.38745e-25 7.50289e-05 -4.7249e-24 9.18448e-42)
(1.13797e-05 3.2196e-06 1.36931e-23 5.91657e-05 -1.09019e-22 3.57922e-39)
(1.28623e-05 2.33098e-06 -5.05203e-25 4.32614e-05 2.68289e-24 2.99689e-42)
(1.40498e-05 2.30678e-06 5.52372e-22 2.85916e-05 -2.06843e-21 2.80346e-36)
(1.47442e-05 2.98617e-06 -6.15397e-22 1.63875e-05 1.44226e-21 2.80597e-36)
(1.48188e-05 4.07665e-06 5.05806e-25 7.66829e-06 -7.02496e-25 2.04219e-42)
(1.42499e-05 5.20129e-06 1.28426e-23 3.09585e-06 -4.34847e-24 1.68332e-39)
(1.31249e-05 5.96356e-06 -1.54645e-24 2.88272e-06 -1.16027e-24 9.3138e-42)
(1.16252e-05 6.01576e-06 -9.05292e-24 6.77052e-06 -3.21202e-23 2.1904e-39)
(9.9869e-06 5.11736e-06 5.23665e-24 1.40827e-05 7.31874e-23 4.72138e-39)
(8.45423e-06 3.17158e-06 1.39116e-24 2.38401e-05 -8.99929e-23 4.08751e-39)
(7.23582e-06 2.33868e-07 0 3.49147e-05 0 0)
(6.47313e-06 -3.50839e-06 1.92286e-24 4.61874e-05 -1.33375e-23 4.17801e-41)
(6.22716e-06 -7.77651e-06 -4.15049e-23 5.66799e-05 2.15688e-22 8.35274e-39)
(6.48227e-06 -1.2249e-05 1.05584e-22 6.56613e-05 -4.60729e-22 3.20214e-38)
(7.16262e-06 -1.66135e-05 -1.76324e-24 7.26561e-05 8.09502e-24 4.32649e-41)
(8.15158e-06 -2.06005e-05 2.12274e-24 7.74648e-05 -6.78808e-24 6.29931e-42)
(9.32037e-06 -2.40294e-05 -6.89984e-23 8.00438e-05 2.12358e-22 4.61164e-39)
(1.0542e-05 -2.68763e-05 0 8.02932e-05 0 0)
(6.22668e-06 2.52489e-05 -2.13014e-23 0.000108089 -8.62505e-23 1.51222e-39)
(6.63065e-06 2.63136e-05 0 0.000114327 0 0)
(6.88602e-06 2.68149e-05 -1.03557e-23 0.000119608 -4.55378e-23 3.60784e-40)
(7.05126e-06 2.66792e-05 1.47064e-22 0.000123674 7.02591e-22 7.89372e-38)
(7.17168e-06 2.58344e-05 -1.44292e-22 0.00012622 -7.75846e-22 9.29858e-38)
(7.32819e-06 2.42741e-05 1.23072e-22 0.000126822 7.70977e-22 8.68655e-38)
(7.62057e-06 2.20508e-05 -1.01063e-22 0.000125064 -7.79551e-22 8.93229e-38)
(8.15561e-06 1.9297e-05 -3.66113e-23 0.000120593 -3.72802e-22 2.03051e-38)
(9.02427e-06 1.62174e-05 4.7943e-23 0.00011321 7.66474e-22 9.05572e-38)
(1.02767e-05 1.30719e-05 1.20615e-24 0.000102946 1.09839e-23 1.1427e-41)
(1.18971e-05 1.01486e-05 5.36532e-24 9.01133e-05 -2.92207e-22 1.63347e-38)
(1.37882e-05 7.71926e-06 -7.66074e-24 7.53325e-05 1.32041e-22 3.90425e-39)
(1.5773e-05 5.99091e-06 7.47453e-24 5.95072e-05 -6.04972e-23 1.09138e-39)
(1.76162e-05 5.06409e-06 1.24169e-23 4.37477e-05 -7.19753e-23 2.0956e-39)
(1.90662e-05 4.90796e-06 5.55143e-22 2.92518e-05 -2.34854e-21 3.45693e-36)
(1.99054e-05 5.35842e-06 -6.32432e-22 1.71633e-05 1.68108e-21 3.55296e-36)
(1.99983e-05 6.14051e-06 1.05705e-23 8.42872e-06 -1.80074e-23 1.15743e-39)
(1.9324e-05 6.91051e-06 4.66979e-24 3.67673e-06 -3.23787e-24 3.9491e-40)
(1.79822e-05 7.31027e-06 -9.95247e-24 3.13703e-06 -1.09476e-23 1.82226e-39)
(1.6172e-05 7.02397e-06 1.03755e-23 6.61637e-06 5.24493e-23 6.83378e-39)
(1.41533e-05 5.82798e-06 -1.92602e-24 1.3534e-05 -7.43647e-25 5.11479e-42)
(1.21986e-05 3.6237e-06 9.60825e-24 2.30122e-05 -1.64435e-22 1.45551e-38)
(1.05468e-05 4.484e-07 -1.2043e-23 3.40056e-05 1.02994e-22 3.75307e-39)
(9.37027e-06 -3.53786e-06 -3.76492e-23 4.5441e-05 2.10436e-22 1.08796e-38)
(8.75949e-06 -8.0818e-06 4.9293e-23 5.6347e-05 -2.31155e-22 1.05802e-38)
(8.72293e-06 -1.28812e-05 -5.75124e-23 6.59542e-05 2.24617e-22 7.58749e-39)
(9.20175e-06 -1.76299e-05 7.09173e-23 7.37372e-05 -2.46887e-22 8.24756e-39)
(1.00872e-05 -2.20569e-05 -4.44039e-24 7.94192e-05 1.3884e-23 2.16309e-41)
(1.12444e-05 -2.59715e-05 0 8.28913e-05 0 0)
(1.24947e-05 -2.93562e-05 9.87859e-24 8.40253e-05 -2.66286e-23 6.09602e-41)
(8.25163e-06 2.94596e-05 2.53259e-23 0.000112023 9.12115e-23 1.63541e-39)
(8.72949e-06 3.04444e-05 -2.12695e-22 0.000118032 -7.92394e-22 1.11906e-37)
(9.05777e-06 3.08529e-05 1.94104e-22 0.000123088 7.8479e-22 1.02869e-37)