/*--------------------------------*- C++ -*----------------------------------*\
  =========                 |
  \\      /  F ield         | OpenFOAM: The Open Source CFD Toolbox
   \\    /   O peration     | Website:  https://openfoam.org
    \\  /    A nd           | Version:  12
     \\/     M anipulation  |
\*---------------------------------------------------------------------------*/
FoamFile
{
    format      ascii;
    class       volScalarField;
    location    "140";
    object      p;
}
// * * * * * * * * * * * * * * * * * * * * * * * * * * * * * * * * * * * * * //

dimensions      [0 2 -2 0 0 0 0];

internalField   nonuniform List<scalar> 
6750
(
0.0216251
0.0216031
0.0215738
0.0214103
0.0203811
0.0231421
0.0231055
0.0229779
0.0227118
0.0223522
0.0249338
0.0248744
0.0247437
0.0245454
0.0243922
0.0268135
0.0267194
0.026595
0.0264545
0.0263774
0.0286798
0.0285418
0.0284076
0.0282948
0.028256
0.030453
0.0302665
0.0301115
0.0300087
0.0299872
0.0320846
0.0318483
0.0316686
0.0315687
0.0315556
0.0335453
0.03326
0.0330556
0.0329564
0.0329485
0.0348166
0.0344847
0.0342577
0.0341592
0.034155
0.0358882
0.0355137
0.0352671
0.03517
0.0351685
0.0367567
0.036345
0.0360828
0.0359876
0.0359879
0.0374252
0.0369827
0.0367092
0.0366164
0.0366177
0.0379032
0.037436
0.0371563
0.0370659
0.0370675
0.0382047
0.0377186
0.0374392
0.0373499
0.0373508
0.0383429
0.0378511
0.037577
0.0374852
0.037484
0.0383428
0.037851
0.0375768
0.0374851
0.0374839
0.0382044
0.0377182
0.0374388
0.0373495
0.0373504
0.0379026
0.0374354
0.0371557
0.0370652
0.0370669
0.0374243
0.0369818
0.0367083
0.0366155
0.0366168
0.0367555
0.0363439
0.0360816
0.0359864
0.0359867
0.0358867
0.0355123
0.0352657
0.0351686
0.035167
0.0348149
0.034483
0.0342559
0.0341574
0.0341532
0.0335432
0.0332579
0.0330535
0.0329543
0.0329464
0.0320822
0.0318459
0.0316662
0.0315662
0.0315532
0.0304503
0.0302638
0.0301087
0.0300059
0.0299844
0.0286767
0.0285387
0.0284045
0.0282917
0.0282529
0.02681
0.0267159
0.0265916
0.026451
0.026374
0.0249299
0.0248706
0.0247398
0.0245416
0.0243884
0.0231379
0.0231013
0.0229737
0.0227076
0.0223479
0.0216206
0.0215986
0.0215692
0.0214058
0.0203765
0.0141975
0.0147907
0.0162601
0.0173458
0.0181326
0.0187577
0.0192471
0.0196123
0.019881
0.0200637
0.0201235
0.0201345
0.0200686
0.0199221
0.0196938
0.0193799
0.0189778
0.0184905
0.0179211
0.0172682
0.0165226
0.0158074
0.0150511
0.0142707
0.0134877
0.0127156
0.0119638
0.0112465
0.0105734
0.00989737
0.0181093
0.0189056
0.0197057
0.0201066
0.0203351
0.0204759
0.0205309
0.0205092
0.0204398
0.0203196
0.0201078
0.0199182
0.01971
0.0194861
0.0192452
0.0189783
0.018673
0.0183183
0.0179037
0.0174266
0.0169092
0.0162682
0.0156026
0.0148974
0.0141601
0.0134028
0.0126335
0.0118663
0.0111403
0.0104378
0.0205904
0.0207739
0.0210887
0.0212423
0.0213175
0.021325
0.0212526
0.0211111
0.020922
0.0206491
0.0202977
0.0199603
0.0195947
0.0192119
0.018818
0.0184129
0.0179934
0.0175543
0.0170899
0.0165956
0.0160707
0.0155139
0.0149331
0.0143268
0.0136996
0.0130576
0.0124022
0.0117441
0.0111696
0.0107559
0.0220329
0.0218082
0.0219367
0.0220191
0.0220276
0.0219595
0.0218096
0.021595
0.0213243
0.0209282
0.0204804
0.020019
0.0195153
0.0189861
0.0184432
0.0178943
0.0173451
0.0167985
0.0162554
0.0157144
0.0151738
0.0146385
0.0141047
0.0135692
0.0130317
0.0124926
0.0119451
0.0113916
0.0109616
0.0108842
0.0231227
0.02275
0.0227961
0.0228078
0.0227328
0.0225772
0.0223414
0.0220407
0.021673
0.0211616
0.0206179
0.0200365
0.0194076
0.0187512
0.0180828
0.0174155
0.0167605
0.0161261
0.0155176
0.0149366
0.0143825
0.0138549
0.0133506
0.0128645
0.0123929
0.011932
0.0114682
0.0109948
0.0106734
0.0109011
0.024069
0.0236572
0.0236385
0.0235699
0.023409
0.0231669
0.0228448
0.0224546
0.0219796
0.0213632
0.0207196
0.0200227
0.0192772
0.0185051
0.0177248
0.0169537
0.0162068
0.015496
0.0148293
0.0142103
0.013639
0.013113
0.0126279
0.0121775
0.0117556
0.0113558
0.0109593
0.0105519
0.010321
0.0108222
0.024906
0.0245004
0.0244236
0.0242783
0.0240384
0.0237155
0.0233117
0.0228352
0.0222476
0.0215376
0.020794
0.0199874
0.0191323
0.0182523
0.0173685
0.0165015
0.0156696
0.0148874
0.0141647
0.0135066
0.0129136
0.0123827
0.0119084
0.0114829
0.0110988
0.0107474
0.0104058
0.0100545
0.00990374
0.0106475
0.0256542
0.0252849
0.0251576
0.0249406
0.0246266
0.0242259
0.0237444
0.0231834
0.0224827
0.0216892
0.0208457
0.0199343
0.0189753
0.0179937
0.0170129
0.0160563
0.0151445
0.0142942
0.0135171
0.012819
0.012201
0.0116598
0.0111889
0.0107797
0.0104234
0.0101098
0.00981209
0.00950765
0.00942793
0.0103805
0.0263356
0.0260241
0.0258527
0.0255668
0.0251809
0.0247054
0.0241481
0.0234982
0.0226936
0.0218191
0.0208767
0.0198647
0.0188068
0.0177286
0.0166562
0.0156148
0.0146273
0.0137119
0.0128816
0.012143
0.0114975
0.0109416
0.0104683
0.010068
0.0097312
0.00944621
0.00918293
0.00891708
0.00890033
0.0100273
0.0269673
0.0267282
0.0265172
0.0261639
0.0257078
0.0251608
0.0245275
0.0237807
0.0228867
0.0219278
0.020889
0.0197802
0.0186271
0.0174565
0.0162963
0.0151739
0.0141137
0.0131352
0.0122524
0.0114727
0.0107976
0.0102234
0.00974272
0.00934543
0.00902116
0.00875707
0.00852005
0.00828573
0.00832516
0.00959401
0.0275615
0.027405
0.027158
0.0267378
0.0262119
0.0255953
0.0248856
0.0240381
0.0230648
0.0220184
0.0208852
0.0196824
0.0184366
0.0171764
0.0159314
0.0147304
0.0135993
0.0125589
0.0116238
0.010802
0.0100952
0.00949964
0.00900739
0.00860796
0.00829041
0.00804068
0.00782301
0.00761424
0.00770416
0.0090857
0.0281287
0.0280617
0.0277817
0.0272941
0.0266983
0.0260144
0.0252249
0.0242782
0.0232299
0.0220941
0.0208676
0.0195723
0.0182357
0.0168876
0.0155592
0.014281
0.0130799
0.0119779
0.0109901
0.010125
0.00938437
0.00876438
0.00825684
0.00785083
0.00753494
0.00729395
0.0070897
0.00690139
0.00703693
0.00850607
0.0286784
0.0287057
0.0283953
0.0278407
0.0271764
0.0264208
0.0255441
0.0245104
0.0233838
0.0221571
0.020838
0.0194509
0.018024
0.0165887
0.0151776
0.0138224
0.0125514
0.0113872
0.0103456
0.00943546
0.00865867
0.00801133
0.00748496
0.00706834
0.00674961
0.00651241
0.0063164
0.00614411
0.00632107
0.00785699
0.0292205
0.0293436
0.0290056
0.0283837
0.0276505
0.0268217
0.025851
0.0247391
0.0235284
0.0222098
0.0207981
0.0193188
0.0178013
0.0162783
0.014784
0.0133513
0.0120093
0.0107815
0.00968434
0.00872695
0.00791135
0.00723356
0.00668488
0.00625379
0.00592804
0.0056901
0.00549766
0.00533747
0.00555216
0.0071382
0.0297621
0.0299847
0.0296207
0.028931
0.0281282
0.0272211
0.0261547
0.024967
0.0236674
0.0222552
0.0207494
0.0191764
0.0175669
0.0159549
0.0143758
0.0128637
0.0114487
0.0101551
0.00899994
0.00799249
0.00713498
0.00642336
0.00584873
0.00539932
0.00506252
0.00481954
0.00462631
0.00447458
0.00472369
0.00634707
0.0303107
0.0306405
0.0302531
0.0294951
0.0286157
0.0276194
0.0264666
0.0251972
0.0238042
0.0222957
0.0206933
0.0190241
0.0173198
0.0156161
0.0139495
0.0123552
0.0108644
0.00950191
0.00828531
0.00722433
0.00632125
0.00557199
0.00496748
0.00449575
0.00414378
0.00389151
0.00369325
0.00354645
0.00382697
0.00547825
0.0308762
0.0313234
0.0309141
0.0300845
0.0291222
0.0280269
0.0267932
0.0254333
0.0239423
0.022334
0.020631
0.0188615
0.0170587
0.0152593
0.0135013
0.0118209
0.0102501
0.00881458
0.0075324
0.00641361
0.00546064
0.00466939
0.00403064
0.00353222
0.00316075
0.00289478
0.00268716
0.00254172
0.00285079
0.00452338
0.0314758
0.0320468
0.0316174
0.0307065
0.0296512
0.0284591
0.0271394
0.0256806
0.0240859
0.0223723
0.0205634
0.0186882
0.0167814
0.0148811
0.0130264
0.0112545
0.00959852
0.00808474
0.00673178
0.00555001
0.00454204
0.00370374
0.00302577
0.00249582
0.00210008
0.00181566
0.00159408
0.00144618
0.00178097
0.00347058
0.0321331
0.0328207
0.0323735
0.0313757
0.030213
0.0289274
0.02751
0.0259443
0.0242391
0.0224132
0.020491
0.018503
0.0164851
0.0144769
0.0125186
0.0106486
0.00890076
0.00730224
0.00587213
0.00462117
0.00355213
0.00266087
0.00193796
0.00137093
0.00094554
0.000637387
0.000396768
0.000242136
0.000599692
0.00230373
0.0328667
0.0336645
0.0332002
0.0321049
0.0308254
0.0294406
0.0279137
0.0262316
0.0244067
0.022459
0.020414
0.0183038
0.0161657
0.0140406
0.01197
0.00999349
0.0081457
0.0064545
0.00493957
0.00361196
0.00247463
0.00152346
0.000748902
0.000138356
-0.000322878
-0.000660815
-0.000926275
-0.00109256
-0.000715564
0.00100145
0.0337024
0.0346114
0.0341189
0.0329059
0.0315111
0.0300121
0.0283618
0.026551
0.0245939
0.0225118
0.0203317
0.0180873
0.0158174
0.0135642
0.0113705
0.00927691
0.0073191
0.00552559
0.00391654
0.00250337
0.00128918
0.000269844
-0.000564271
-0.0012259
-0.00173026
-0.00210506
-0.00240215
-0.00258597
-0.00219352
-0.00046447
0.034681
0.0356832
0.0351497
0.0338139
0.0322917
0.030658
0.0288672
0.0269113
0.0248057
0.022573
0.0202421
0.0178482
0.0154316
0.0130361
0.0107059
0.0084824
0.00640229
0.00449473
0.00278038
0.00127093
-3.03863e-05
-0.00112772
-0.0020308
-0.00275253
-0.00330868
-0.00372876
-0.00406558
-0.00427415
-0.00387133
-0.00213144
0.0358492
0.0369248
0.0363333
0.034866
0.033191
0.0313988
0.0294458
0.0273233
0.0250475
0.0226432
0.020141
0.0175779
0.014996
0.0124405
0.00995678
0.00758752
0.00537005
0.00333417
0.00150093
-0.000117734
-0.00151853
-0.00270568
-0.00368904
-0.0044817
-0.00510009
-0.00557562
-0.00596201
-0.0062043
-0.00579803
-0.00404973
0.0372747
0.0383966
0.0377299
0.0361032
0.0342424
0.0322616
0.0301171
0.0277988
0.0253245
0.0227209
0.0200208
0.0172632
0.014492
0.0117539
0.00909567
0.00656083
0.00418741
0.00200569
3.69703e-05
-0.00170669
-0.00322201
-0.00451334
-0.00559075
-0.00646755
-0.00716091
-0.0077043
-0.00815232
-0.00843971
-0.0080397
-0.00628824
0.0390702
0.0401923
0.0394112
0.0375803
0.0354919
0.0332819
0.0309057
0.0283522
0.0256408
0.0228009
0.0198677
0.0168825
0.0138911
0.0109416
0.00808208
0.00535681
0.00280426
0.000454923
-0.00166982
-0.00355796
-0.00520638
-0.00661964
-0.00780808
-0.00878532
-0.00956941
-0.010196
-0.0107205
-0.0110677
-0.0106883
-0.00894444
0.0413631
0.0424356
0.0414772
0.0393807
0.037006
0.0345089
0.0318443
0.0290003
0.0259987
0.0228719
0.0196581
0.016401
0.0131483
0.00994997
0.00685462
0.00390713
0.00114598
-0.00139851
-0.00370524
-0.00576249
-0.00756744
-0.00912497
-0.0104457
-0.0115438
-0.0124381
-0.0131665
-0.0137857
-0.0142111
-0.0138738
-0.0121587
0.0444089
0.0453204
0.0440836
0.0416317
0.0388839
0.0360143
0.0329777
0.0297629
0.0263947
0.0229095
0.0193488
0.0157592
0.0121904
0.00869327
0.0053169
0.00210578
-0.000902342
-0.00367803
-0.00620098
-0.00846018
-0.0104532
-0.0121853
-0.0136673
-0.0149137
-0.0159442
-0.0167987
-0.0175346
-0.0180616
-0.0177996
-0.0161541
0.0485897
0.0491287
0.0474382
0.0444938
0.041247
0.0378811
0.0343525
0.0306524
0.02681
0.0228667
0.0188681
0.0148637
0.0109052
0.00704389
0.00332809
-0.000199352
-0.0035028
-0.00655496
-0.00933733
-0.0118401
-0.0140622
-0.016009
-0.0176915
-0.0191243
-0.0203278
-0.0213425
-0.0222256
-0.0228874
-0.0227593
-0.0212687
0.0547774
0.0545694
0.0521341
0.0484892
0.0445371
0.0404502
0.0361973
0.0317835
0.0272496
0.0226467
0.0180275
0.0134462
0.00895567
0.00460621
0.000442958
-0.00349548
-0.00717803
-0.0105815
-0.0136902
-0.0164946
-0.0189968
-0.0212157
-0.0231468
-0.0248049
-0.026211
-0.0274033
-0.0284348
-0.029231
-0.0292997
-0.0281304
0.06558
0.0636857
0.0596962
0.0548213
0.0497057
0.0444458
0.0390382
0.0335183
0.027944
0.0223757
0.0168706
0.0114819
0.00625735
0.00123825
-0.00354109
-0.00805331
-0.0122776
-0.0161995
-0.0198106
-0.0231085
-0.0260894
-0.0287416
-0.0310902
-0.0331439
-0.0349136
-0.036425
-0.0377232
-0.0387974
-0.0393522
-0.0388329
0.0178662
0.0188031
0.0205505
0.0219317
0.0230848
0.0241564
0.0251802
0.0261654
0.0271218
0.0280588
0.0289847
0.0299072
0.0308346
0.0317752
0.0327375
0.033732
0.0347713
0.0358719
0.0370526
0.0383348
0.0397461
0.0413259
0.043122
0.0452
0.047649
0.050604
0.0542502
0.0588005
0.0644819
0.0718154
0.0221863
0.0231609
0.0242847
0.0252193
0.0260517
0.0268437
0.0276071
0.0283459
0.0290675
0.02978
0.0304913
0.0312094
0.0319427
0.0327001
0.0334912
0.0343276
0.0352233
0.0361952
0.0372634
0.0384528
0.0397956
0.0413351
0.0431278
0.0452519
0.0478169
0.0509854
0.0549919
0.0601581
0.0669711
0.0760189
0.0244926
0.0253605
0.0262018
0.0269517
0.0276785
0.0283987
0.0291092
0.0298109
0.0305088
0.0312086
0.0319165
0.032639
0.0333835
0.0341582
0.0349725
0.035838
0.0367687
0.0377818
0.0388986
0.0401462
0.0415597
0.0431861
0.0450883
0.0473537
0.0501061
0.0535246
0.0578756
0.0635373
0.0711605
0.0814365
0.0265035
0.0272626
0.0279889
0.0286593
0.0293224
0.0299881
0.0306554
0.031327
0.0320081
0.032704
0.0334203
0.0341634
0.0349403
0.0357591
0.0366293
0.0375626
0.0385734
0.0396794
0.0409031
0.0422728
0.0438262
0.0456129
0.0477003
0.0501813
0.0531875
0.056908
0.0616235
0.0677293
0.075967
0.0870741
0.0283799
0.0290464
0.0296834
0.030283
0.0308864
0.0315035
0.0321351
0.0327838
0.0334539
0.0341502
0.0348777
0.0356425
0.0364514
0.0373127
0.0382361
0.0392337
0.0403205
0.0415151
0.042841
0.0443285
0.0460172
0.0479595
0.0502263
0.0529152
0.0561634
0.0601677
0.0652187
0.0717227
0.0805051
0.0923608
0.0300932
0.0306779
0.0312392
0.0317794
0.0323358
0.0329171
0.0335238
0.0341582
0.034824
0.0355253
0.0362669
0.0370546
0.0378951
0.0387967
0.0397694
0.0408256
0.0419806
0.043254
0.0446702
0.046261
0.0480677
0.0501451
0.0525671
0.0554352
0.0588913
0.0631389
0.0684781
0.0753284
0.0845965
0.09716
0.0316406
0.0321522
0.0326494
0.0331414
0.033661
0.0342155
0.034805
0.0354312
0.0360973
0.0368072
0.0375652
0.038377
0.039249
0.0401896
0.0412089
0.0423195
0.0435373
0.0448822
0.0463796
0.0480624
0.0499734
0.0521691
0.0547259
0.0577483
0.0613822
0.0658367
0.0714208
0.0785674
0.0882497
0.101441
0.0330173
0.0334633
0.0339056
0.0343582
0.0348491
0.0353835
0.0359611
0.0365834
0.037253
0.0379733
0.0387486
0.039584
0.0404861
0.0414631
0.0425253
0.0436854
0.0449597
0.0463686
0.0479382
0.0497021
0.0517045
0.0540032
0.0566766
0.0598313
0.0636169
0.0682467
0.0740376
0.0814347
0.0914563
0.10518
0.0342149
0.0346021
0.0349979
0.0354186
0.0358872
0.0364068
0.0369767
0.0375979
0.0382727
0.0390042
0.0397961
0.0406535
0.041583
0.0425926
0.0436927
0.0448963
0.0462199
0.0476843
0.049316
0.0511497
0.0532299
0.0556162
0.058388
0.0616541
0.0655664
0.0703422
0.0763048
0.0839093
0.0941993
0.108361
0.0352265
0.035562
0.0359192
0.0363149
0.0367665
0.0372753
0.0378404
0.0384624
0.039143
0.039885
0.0406921
0.041569
0.0425223
0.04356
0.0446925
0.045933
0.047298
0.0488088
0.0504925
0.0523839
0.0545287
0.056987
0.0598395
0.0631965
0.0672121
0.0721062
0.0782075
0.0859798
0.0964737
0.11099
0.0360492
0.0363407
0.0366671
0.0370437
0.0374827
0.037984
0.0385462
0.0391697
0.039856
0.0406074
0.0414274
0.0423208
0.0432938
0.0443546
0.0455136
0.046784
0.0481827
0.049731
0.0514563
0.053394
0.0555902
0.0581058
0.0610222
0.0644511
0.0685478
0.0735347
0.0797446
0.0876485
0.09829
0.113089
0.0366849
0.0369412
0.037244
0.0376067
0.0380367
0.0385327
0.0390934
0.0397187
0.0404099
0.041169
0.0419994
0.0429058
0.0438943
0.0449732
0.0461527
0.0474463
0.0488708
0.0504479
0.0522051
0.0541781
0.0564135
0.0589725
0.0619374
0.0654204
0.0695783
0.0746349
0.0809262
0.0889289
0.0996701
0.114689
0.037141
0.0373709
0.0376571
0.0380103
0.0384342
0.0389269
0.0394868
0.0401137
0.0408086
0.0415736
0.0424117
0.0433276
0.0443274
0.0454193
0.0466136
0.0479239
0.0493669
0.0509646
0.0527446
0.0547428
0.0570059
0.0595958
0.062595
0.0661163
0.0703174
0.0754228
0.0817713
0.0898437
0.100645
0.115831
0.0374291
0.0376419
0.0379176
0.038265
0.0386852
0.039176
0.0397356
0.0403637
0.0410612
0.04183
0.0426731
0.0435952
0.0446022
0.0457025
0.0469063
0.0482271
0.049682
0.0512927
0.0530872
0.0551013
0.0573821
0.0599915
0.0630123
0.0665578
0.070786
0.0759221
0.0823065
0.0904227
0.101252
0.11656
0.0375644
0.0377689
0.0380397
0.0383843
0.0388029
0.0392929
0.0398524
0.0404812
0.04118
0.0419507
0.0427963
0.0437213
0.0447318
0.0458361
0.0470445
0.0483704
0.0498309
0.0514479
0.0532493
0.0552711
0.0575603
0.060179
0.0632101
0.0667671
0.0710083
0.0761589
0.0825604
0.0906972
0.101533
0.116912
0.0375643
0.0377688
0.0380395
0.0383842
0.0388028
0.0392928
0.0398523
0.0404811
0.0411799
0.0419506
0.0427962
0.0437212
0.0447318
0.045836
0.0470444
0.0483703
0.0498309
0.0514478
0.0532492
0.055271
0.0575602
0.0601789
0.06321
0.066767
0.0710082
0.0761588
0.0825603
0.0906971
0.101533
0.116912
0.0374288
0.0376416
0.0379173
0.0382646
0.0386849
0.0391757
0.0397353
0.0403634
0.041061
0.0418297
0.0426729
0.0435949
0.044602
0.0457022
0.046906
0.0482269
0.0496817
0.0512925
0.0530869
0.0551011
0.0573819
0.0599912
0.063012
0.0665575
0.0707857
0.0759218
0.0823061
0.0904223
0.101251
0.116559
0.0371404
0.0373703
0.0376565
0.0380097
0.0384336
0.0389263
0.0394862
0.0401132
0.0408082
0.0415731
0.0424113
0.0433271
0.044327
0.0454188
0.0466132
0.0479234
0.0493665
0.0509641
0.0527441
0.0547423
0.0570055
0.0595953
0.0625945
0.0661158
0.0703169
0.0754223
0.0817707
0.0898431
0.100644
0.11583
0.036684
0.0369403
0.0372432
0.0376059
0.0380359
0.038532
0.0390927
0.039718
0.0404092
0.0411683
0.0419988
0.0429052
0.0438937
0.0449725
0.0461521
0.0474456
0.0488702
0.0504472
0.0522045
0.0541775
0.0564128
0.0589718
0.0619367
0.0654197
0.0695776
0.0746341
0.0809253
0.088928
0.0996691
0.114688
0.036048
0.0363396
0.036666
0.0370427
0.0374817
0.037983
0.0385452
0.0391688
0.0398551
0.0406065
0.0414265
0.0423199
0.043293
0.0443538
0.0455128
0.0467832
0.0481819
0.0497302
0.0514555
0.0533932
0.0555894
0.0581049
0.0610213
0.0644501
0.0685469
0.0735337
0.0797436
0.0876473
0.0982887
0.113087
0.0352251
0.0355606
0.0359179
0.0363136
0.0367652
0.0372741
0.0378392
0.0384612
0.0391419
0.0398839
0.040691
0.041568
0.0425212
0.043559
0.0446915
0.0459319
0.047297
0.0488078
0.0504915
0.0523829
0.0545276
0.0569859
0.0598384
0.0631954
0.0672109
0.0721049
0.0782062
0.0859784
0.0964721
0.110988
0.0342132
0.0346004
0.0349963
0.0354171
0.0358857
0.0364053
0.0369752
0.0375965
0.0382714
0.0390028
0.0397948
0.0406522
0.0415817
0.0425914
0.0436915
0.0448951
0.0462187
0.047683
0.0493148
0.0511484
0.0532287
0.0556149
0.0583866
0.0616527
0.065565
0.0703407
0.0763032
0.0839076
0.0941974
0.108359
0.0330152
0.0334613
0.0339037
0.0343563
0.0348473
0.0353817
0.0359594
0.0365818
0.0372514
0.0379718
0.0387471
0.0395825
0.0404847
0.0414617
0.0425239
0.043684
0.0449583
0.0463672
0.0479368
0.0497007
0.051703
0.0540017
0.056675
0.0598297
0.0636152
0.068245
0.0740358
0.0814327
0.0914541
0.105177
0.0316382
0.0321499
0.0326472
0.0331392
0.033659
0.0342136
0.0348031
0.0354293
0.0360955
0.0368054
0.0375635
0.0383753
0.0392474
0.040188
0.0412073
0.0423179
0.0435357
0.0448806
0.046378
0.0480608
0.0499717
0.0521674
0.0547242
0.0577465
0.0613803
0.0658347
0.0714187
0.0785651
0.0882472
0.101438
0.0300905
0.0306753
0.0312367
0.031777
0.0323335
0.0329148
0.0335217
0.0341562
0.034822
0.0355233
0.036265
0.0370527
0.0378933
0.0387949
0.0397676
0.0408238
0.0419789
0.0432522
0.0446684
0.0462592
0.0480658
0.0501433
0.0525652
0.0554332
0.0588892
0.0631367
0.0684758
0.0753259
0.0845937
0.0971568
0.0283769
0.0290435
0.0296806
0.0302803
0.0308838
0.031501
0.0321326
0.0327814
0.0334517
0.034148
0.0348756
0.0356404
0.0364494
0.0373107
0.0382341
0.0392318
0.0403186
0.0415132
0.0428391
0.0443266
0.0460152
0.0479575
0.0502242
0.052913
0.0561611
0.0601653
0.0652162
0.07172
0.080502
0.0923572
0.0265001
0.0272593
0.0279858
0.0286563
0.0293195
0.0299853
0.0306527
0.0313244
0.0320056
0.0327016
0.033418
0.0341612
0.0349381
0.0357569
0.0366271
0.0375605
0.0385713
0.0396773
0.040901
0.0422707
0.043824
0.0456108
0.047698
0.050179
0.0531851
0.0569055
0.0616208
0.0677264
0.0759637
0.0870702
0.0244888
0.0253568
0.0261984
0.0269484
0.0276753
0.0283956
0.0291063
0.0298081
0.0305061
0.031206
0.0319139
0.0326365
0.0333811
0.0341558
0.0349702
0.0358357
0.0367664
0.0377795
0.0388964
0.0401439
0.0415574
0.0431838
0.0450859
0.0473513
0.0501035
0.0535219
0.0578727
0.0635341
0.0711569
0.0814323
0.022182
0.0231568
0.0242809
0.0252157
0.0260482
0.0268404
0.0276039
0.0283428
0.0290646
0.0297772
0.0304886
0.0312068
0.0319401
0.0326976
0.0334887
0.0343252
0.0352209
0.0361928
0.037261
0.0384504
0.0397932
0.0413327
0.0431253
0.0452493
0.0478142
0.0509826
0.0549889
0.0601548
0.0669674
0.0760145
0.0178613
0.0187983
0.0205461
0.0219275
0.0230808
0.0241525
0.0251766
0.0261619
0.0271184
0.0280556
0.0289816
0.0299042
0.0308317
0.0317724
0.0327348
0.0337293
0.0347687
0.0358694
0.0370501
0.0383323
0.0397436
0.0413234
0.0431194
0.0451974
0.0476463
0.0506012
0.0542472
0.0587972
0.0644781
0.0718108
0.0655752
0.0636808
0.0596913
0.0548162
0.0497005
0.0444405
0.0390328
0.0335129
0.0279385
0.0223701
0.0168651
0.0114764
0.00625191
0.00123289
-0.00354634
-0.00805843
-0.0122826
-0.0162043
-0.0198152
-0.023113
-0.0260937
-0.0287457
-0.0310942
-0.0331476
-0.0349171
-0.0364283
-0.0377263
-0.0388004
-0.039355
-0.0388356
0.0547732
0.0545652
0.0521299
0.0484848
0.0445326
0.0404456
0.0361925
0.0317786
0.0272448
0.0226417
0.0180226
0.0134413
0.00895081
0.00460141
0.000438241
-0.00350009
-0.00718252
-0.0105859
-0.0136944
-0.0164986
-0.0190007
-0.0212194
-0.0231504
-0.0248083
-0.0262142
-0.0274064
-0.0284376
-0.0292337
-0.0293023
-0.028133
0.048586
0.0491249
0.0474344
0.0444898
0.0412429
0.0378769
0.0343482
0.0306481
0.0268056
0.0228622
0.0188636
0.0148592
0.0109007
0.00703952
0.00332379
-0.000203573
-0.00350692
-0.00655896
-0.0093412
-0.0118439
-0.0140658
-0.0160125
-0.0176948
-0.0191274
-0.0203308
-0.0213453
-0.0222283
-0.02289
-0.0227617
-0.021271
0.0444054
0.0453169
0.0440801
0.0416281
0.0388802
0.0360104
0.0329738
0.0297589
0.0263906
0.0229054
0.0193447
0.0157551
0.0121863
0.0086892
0.00531289
0.00210184
-0.000906186
-0.00368176
-0.00620461
-0.00846368
-0.0104566
-0.0121885
-0.0136704
-0.0149166
-0.015947
-0.0168013
-0.0175371
-0.018064
-0.0178019
-0.0161563
0.0413599
0.0424324
0.0414739
0.0393773
0.0370025
0.0345054
0.0318407
0.0289966
0.0259949
0.022868
0.0196542
0.0163971
0.0131445
0.00994614
0.00685084
0.00390342
0.00114235
-0.00140205
-0.00370867
-0.0057658
-0.00757063
-0.00912804
-0.0104487
-0.0115466
-0.0124408
-0.0131691
-0.0137881
-0.0142134
-0.013876
-0.0121609
0.0390671
0.0401893
0.0394081
0.0375771
0.0354886
0.0332785
0.0309023
0.0283487
0.0256372
0.0227972
0.0198641
0.0168788
0.0138874
0.010938
0.00807848
0.00535326
0.00280079
0.000451541
-0.0016731
-0.00356114
-0.00520945
-0.0066226
-0.00781092
-0.00878804
-0.00957201
-0.0101985
-0.0107229
-0.01107
-0.0106904
-0.00894651
0.0372718
0.0383937
0.0377269
0.0361001
0.0342392
0.0322583
0.0301138
0.0277955
0.025321
0.0227174
0.0200173
0.0172597
0.0144885
0.0117504
0.0090922
0.00655742
0.00418407
0.00200242
3.37963e-05
-0.00170976
-0.00322498
-0.00451621
-0.00559351
-0.00647019
-0.00716345
-0.00770673
-0.00815465
-0.00844195
-0.00804184
-0.00629026
0.0358464
0.0369219
0.0363304
0.034863
0.033188
0.0313957
0.0294426
0.02732
0.0250442
0.0226398
0.0201376
0.0175745
0.0149926
0.0124371
0.00995341
0.00758421
0.0053668
0.00333099
0.00149784
-0.000120734
-0.00152144
-0.00270848
-0.00369175
-0.0044843
-0.00510259
-0.00557802
-0.00596432
-0.00620652
-0.00580014
-0.00405171
0.0346783
0.0356805
0.0351469
0.033811
0.0322887
0.0306549
0.0288641
0.0269081
0.0248024
0.0225697
0.0202388
0.0178448
0.0154283
0.0130328
0.0107026
0.00847916
0.00639911
0.00449162
0.00277735
0.00126799
-3.32406e-05
-0.00113048
-0.00203347
-0.0027551
-0.00331115
-0.00373114
-0.00406788
-0.00427636
-0.00387345
-0.00213341
0.0336997
0.0346087
0.0341161
0.0329031
0.0315082
0.0300091
0.0283587
0.0265478
0.0245907
0.0225085
0.0203285
0.018084
0.0158141
0.0135609
0.0113673
0.00927373
0.00731597
0.00552252
0.00391355
0.00250047
0.00128636
0.00026711
-0.000566916
-0.00122846
-0.00173273
-0.00210744
-0.00240444
-0.00258819
-0.00219564
-0.000466438
0.0328641
0.0336618
0.0331975
0.032102
0.0308225
0.0294377
0.0279107
0.0262285
0.0244036
0.0224558
0.0204108
0.0183006
0.0161625
0.0140374
0.0119669
0.00999035
0.00814261
0.00645147
0.00493661
0.00360908
0.00247183
0.00152074
0.000746265
0.000135803
-0.000325347
-0.000663201
-0.000928584
-0.0010948
-0.000717705
0.000999477
0.0321305
0.032818
0.0323707
0.0313729
0.0302101
0.0289244
0.027507
0.0259412
0.024236
0.0224101
0.0204879
0.0184998
0.0164819
0.0144737
0.0125154
0.0106455
0.0088977
0.00729923
0.00586919
0.0046183
0.00354933
0.00265815
0.00193532
0.00136837
0.000943061
0.000634987
0.000394442
0.00023988
0.000597528
0.00230174
0.0314732
0.0320441
0.0316147
0.0307037
0.0296483
0.0284561
0.0271364
0.0256775
0.0240828
0.0223692
0.0205602
0.0186851
0.0167783
0.0148779
0.0130232
0.0112514
0.00959547
0.00808175
0.00672884
0.00554714
0.00453924
0.00370102
0.00302313
0.00249325
0.00209758
0.00181324
0.00159173
0.00144389
0.00177878
0.00346857
0.0308736
0.0313207
0.0309113
0.0300817
0.0291193
0.0280239
0.0267902
0.0254302
0.0239392
0.0223308
0.0206279
0.0188584
0.0170555
0.0152562
0.0134982
0.0118178
0.0102471
0.00881158
0.00752947
0.00641073
0.00545784
0.00466666
0.00402798
0.00352963
0.00315823
0.00289233
0.00268479
0.00253941
0.00284857
0.00452135
0.030308
0.0306377
0.0302503
0.0294922
0.0286128
0.0276164
0.0264636
0.0251941
0.0238011
0.0222926
0.0206902
0.0190209
0.0173167
0.015613
0.0139464
0.0123522
0.0108613
0.0094989
0.00828237
0.00722144
0.00631843
0.00556924
0.0049648
0.00449314
0.00414124
0.00388904
0.00369085
0.00354411
0.00382472
0.00547618
0.0297594
0.0299819
0.0296178
0.028928
0.0281253
0.0272181
0.0261516
0.0249639
0.0236643
0.022252
0.0207462
0.0191733
0.0175637
0.0159517
0.0143726
0.0128606
0.0114457
0.0101521
0.00899698
0.00798959
0.00713215
0.00642059
0.00584602
0.00539668
0.00505995
0.00481704
0.00462388
0.0044722
0.0047214
0.00634497
0.0292177
0.0293407
0.0290027
0.0283807
0.0276475
0.0268186
0.0258479
0.024736
0.0235253
0.0222066
0.0207949
0.0193156
0.0177981
0.0162752
0.0147809
0.0133482
0.0120062
0.0107784
0.00968136
0.00872403
0.00790849
0.00723076
0.00668215
0.00625112
0.00592544
0.00568757
0.00549519
0.00533506
0.00554983
0.00713607
0.0286756
0.0287028
0.0283923
0.0278376
0.0271733
0.0264177
0.025541
0.0245073
0.0233806
0.0221539
0.0208348
0.0194477
0.0180208
0.0165855
0.0151744
0.0138193
0.0125483
0.0113841
0.0103426
0.00943251
0.00865578
0.00800851
0.0074822
0.00706565
0.00674698
0.00650984
0.00631389
0.00614166
0.00631871
0.00785481
0.0281257
0.0280587
0.0277786
0.0272909
0.0266952
0.0260112
0.0252217
0.024275
0.0232267
0.0220909
0.0208644
0.0195691
0.0182324
0.0168843
0.015556
0.0142778
0.0130768
0.0119748
0.0109871
0.010122
0.00938145
0.00876153
0.00825404
0.0078481
0.00753227
0.00729135
0.00708716
0.00689891
0.00703453
0.00850385
0.0275585
0.0274019
0.0271548
0.0267346
0.0262087
0.0255921
0.0248824
0.0240348
0.0230615
0.0220152
0.020882
0.0196791
0.0184334
0.0171732
0.0159281
0.0147272
0.0135961
0.0125558
0.0116208
0.010799
0.0100923
0.00949676
0.00900456
0.0086052
0.0082877
0.00803804
0.00782043
0.00761172
0.00770172
0.00908343
0.0269641
0.026725
0.0265139
0.0261606
0.0257045
0.0251575
0.0245242
0.0237773
0.0228833
0.0219244
0.0208857
0.0197769
0.0186237
0.0174532
0.0162931
0.0151707
0.0141105
0.0131321
0.0122493
0.0114697
0.0107946
0.0102205
0.00973986
0.00934262
0.00901843
0.0087544
0.00851743
0.00828317
0.00832268
0.00959169
0.0263323
0.0260208
0.0258493
0.0255634
0.0251775
0.024702
0.0241447
0.0234948
0.0226902
0.0218158
0.0208734
0.0198613
0.0188034
0.0177253
0.0166529
0.0156115
0.0146241
0.0137088
0.0128784
0.0121399
0.0114945
0.0109387
0.0104654
0.0100652
0.00972842
0.0094435
0.00918027
0.00891448
0.0088978
0.010025
0.0256507
0.0252814
0.0251541
0.0249371
0.0246231
0.0242224
0.0237409
0.0231799
0.0224792
0.0216858
0.0208422
0.0199308
0.0189719
0.0179903
0.0170096
0.0160529
0.0151412
0.014291
0.0135139
0.0128159
0.012198
0.0116568
0.011186
0.0107768
0.0104205
0.010107
0.00980939
0.00950501
0.00942536
0.0103781
0.0249024
0.0244968
0.0244199
0.0242746
0.0240348
0.0237119
0.0233081
0.0228316
0.022244
0.0215341
0.0207905
0.019984
0.0191289
0.0182488
0.0173651
0.0164982
0.0156663
0.0148841
0.0141615
0.0135034
0.0129105
0.0123797
0.0119054
0.01148
0.0110959
0.0107446
0.0104031
0.0100518
0.00990113
0.010645
0.0240652
0.0236534
0.0236347
0.0235662
0.0234053
0.0231632
0.0228411
0.0224509
0.021976
0.0213596
0.020716
0.0200191
0.0192737
0.0185016
0.0177214
0.0169503
0.0162034
0.0154927
0.014826
0.0142071
0.0136359
0.0131099
0.0126249
0.0121745
0.0117527
0.0113529
0.0109565
0.0105492
0.0103183
0.0108196
0.0231187
0.022746
0.0227922
0.0228039
0.0227289
0.0225734
0.0223376
0.022037
0.0216693
0.0211579
0.0206142
0.0200328
0.019404
0.0187477
0.0180793
0.017412
0.0167571
0.0161228
0.0155143
0.0149333
0.0143793
0.0138518
0.0133475
0.0128615
0.01239
0.0119291
0.0114654
0.010992
0.0106707
0.0108985
0.0220287
0.021804
0.0219326
0.022015
0.0220236
0.0219555
0.0218057
0.0215911
0.0213205
0.0209244
0.0204767
0.0200153
0.0195117
0.0189825
0.0184396
0.0178908
0.0173417
0.0167951
0.0162521
0.0157111
0.0151706
0.0146353
0.0141016
0.0135661
0.0130287
0.0124897
0.0119422
0.0113888
0.0109588
0.0108815
0.020586
0.0207695
0.0210844
0.021238
0.0213133
0.0213208
0.0212485
0.0211071
0.020918
0.0206452
0.0202938
0.0199565
0.0195909
0.0192082
0.0188144
0.0184094
0.0179899
0.0175509
0.0170865
0.0165923
0.0160674
0.0155107
0.0149299
0.0143237
0.0136965
0.0130546
0.0123993
0.0117412
0.0111668
0.0107532
0.0181045
0.0189009
0.0197011
0.0201021
0.0203307
0.0204716
0.0205266
0.0205051
0.0204357
0.0203156
0.0201038
0.0199143
0.0197062
0.0194824
0.0192416
0.0189747
0.0186694
0.0183148
0.0179002
0.0174232
0.0169058
0.016265
0.0155994
0.0148942
0.014157
0.0133997
0.0126304
0.0118633
0.0111374
0.0104349
0.0141921
0.0147854
0.0162551
0.017341
0.018128
0.0187531
0.0192427
0.019608
0.0198768
0.0200596
0.0201195
0.0201305
0.0200648
0.0199184
0.0196901
0.0193763
0.0189742
0.0184869
0.0179175
0.0172647
0.0165192
0.015804
0.0150477
0.0142673
0.0134844
0.0127122
0.0119605
0.0112432
0.01057
0.00989413
-0.0405114
-0.0325735
-0.0265791
-0.0217113
-0.0176933
-0.0143484
-0.0115269
-0.00911935
-0.00704267
-0.00523362
-0.00364355
-0.00223449
-0.000976416
0.000154739
0.00117848
0.00211079
0.00296481
0.00375134
0.00447913
0.00515502
0.00578393
0.00636879
0.0069104
0.00740735
0.00785559
0.00824677
0.00857076
0.00882443
0.0090087
0.0090553
-0.0406634
-0.0325974
-0.0263076
-0.0213092