/*--------------------------------*- C++ -*----------------------------------*\
  =========                 |
  \\      /  F ield         | OpenFOAM: The Open Source CFD Toolbox
   \\    /   O peration     | Website:  https://openfoam.org
    \\  /    A nd           | Version:  12
     \\/     M anipulation  |
\*---------------------------------------------------------------------------*/
FoamFile
{
    format      ascii;
    class       surfaceScalarField;
    location    "140";
    object      phi;
}
// * * * * * * * * * * * * * * * * * * * * * * * * * * * * * * * * * * * * * //

dimensions      [0 3 -1 0 0 0 0];

internalField   nonuniform List<scalar> 
13275
(
0.369022
-0.00462649
0.36948
-0.0114885
0.369793
-0.0154117
0.369907
-0.017368
-0.0180392
0.369846
0.351098
-0.0048995
0.35146
-0.0118503
0.35168
-0.0156321
0.351641
-0.0173284
-0.0176406
0.351242
0.334002
-0.00502233
0.334077
-0.0119257
0.333967
-0.0155224
0.333632
-0.0169936
-0.0171012
0.333093
0.317721
-0.00499284
0.31751
-0.0117146
0.317102
-0.015114
0.316531
-0.0164227
-0.0164259
0.315856
0.302245
-0.00483596
0.30179
-0.0112592
0.301124
-0.0144483
0.300334
-0.0156331
-0.0155882
0.299497
0.287534
-0.00457566
0.286872
-0.0105969
0.285977
-0.0135536
0.284975
-0.0146314
-0.0145684
0.283956
0.273546
-0.00422925
0.272706
-0.00975667
0.271605
-0.012453
0.270401
-0.013427
-0.0133618
0.269194
0.260243
-0.00381046
0.259251
-0.00876414
0.257969
-0.0111712
0.25658
-0.0120378
-0.0119784
0.255197
0.247593
-0.00333242
0.246475
-0.0076464
0.245042
-0.00973797
0.243495
-0.0104909
-0.0104409
0.241958
0.235564
-0.00280886
0.234351
-0.00643306
0.232801
-0.00818835
0.231132
-0.0088212
-0.00878154
0.229472
0.224129
-0.00225417
0.222852
-0.0051555
0.221224
-0.00656062
0.219471
-0.00706825
-0.00703854
0.217728
0.213259
-0.00168279
0.211949
-0.00384514
0.210282
-0.00489363
0.208487
-0.00527305
-0.0052522
0.2067
0.202927
-0.00110861
0.201614
-0.00253148
0.199944
-0.00322416
0.198146
-0.00347457
-0.00346131
0.196355
0.193107
-0.000544181
0.191816
-0.00124099
0.190177
-0.00158446
0.188409
-0.00170708
-0.00170046
0.186648
0.183771
5.10003e-07
0.182529
1.16005e-06
0.180943
1.46839e-06
0.179235
1.55652e-06
1.5224e-06
0.177533
0.183771
0.000545203
0.182529
0.00124331
0.180943
0.00158739
0.179235
0.00171019
0.0017035
0.177533
0.193107
0.00110963
0.191816
0.0025338
0.190177
0.00322708
0.188409
0.00347767
0.00346435
0.186648
0.202927
0.00168381
0.201614
0.00384746
0.199944
0.00489654
0.198146
0.00527614
0.00525522
0.196355
0.213259
0.00225518
0.211949
0.0051578
0.210282
0.00656351
0.208487
0.00707132
0.00704155
0.2067
0.224129
0.00280986
0.222852
0.00643534
0.221224
0.00819123
0.219471
0.00882424
0.00878452
0.217728
0.235564
0.00333341
0.234351
0.00764866
0.232801
0.00974082
0.231132
0.010494
0.0104439
0.229472
0.247593
0.00381144
0.246475
0.00876638
0.245042
0.011174
0.243495
0.0120408
0.0119813
0.241958
0.260243
0.00423021
0.259251
0.00975888
0.257969
0.0124558
0.25658
0.0134299
0.0133647
0.255197
0.273546
0.00457661
0.272706
0.0105991
0.271605
0.0135563
0.270401
0.0146343
0.0145712
0.269194
0.287534
0.00483689
0.286872
0.0112613
0.285977
0.014451
0.284976
0.015636
0.015591
0.283956
0.302245
0.00499375
0.30179
0.0117167
0.301124
0.0151167
0.300334
0.0164255
0.0164287
0.299497
0.317721
0.00502322
0.31751
0.0119278
0.317102
0.015525
0.316531
0.0169963
0.0171039
0.315856
0.334002
0.00490034
0.334077
0.0118523
0.333968
0.0156346
0.333633
0.0173312
0.0176434
0.333093
0.351098
0.00462728
0.35146
0.0114904
0.351681
0.0154142
0.351641
0.0173707
0.0180419
0.351243
0.369022
0.369481
0.369793
0.369907
0.369846
0.197372
-0.0505622
-0.197412
0.19696
-0.0578093
0.195935
-0.0640863
0.194279
-0.0696085
0.192048
-0.0743404
0.189313
-0.0782161
0.186146
-0.0811445
0.182622
-0.0830023
0.178831
-0.0836452
0.174885
-0.0830243
0.170871
-0.0809419
0.166944
-0.0772612
0.163248
-0.0720654
0.159929
-0.0654449
0.157117
-0.0575781
0.154919
-0.0487204
0.153405
-0.0391839
0.152609
-0.0293063
0.152525
-0.0194239
0.153114
-0.00984564
0.154283
-0.000795447
0.156002
0.00750783
0.158158
0.0149844
0.160657
0.0215349
0.163414
0.0271398
0.166347
0.0318181
0.169387
0.0356153
0.172471
0.0385929
0.175541
0.0408207
0.0423658
0.178504
0.194742
-0.0506822
-0.194622
0.194078
-0.0571454
0.192724
-0.0627319
0.190778
-0.067663
0.188319
-0.0718815
0.185419
-0.0753163
0.182146
-0.0778707
0.178568
-0.0794244
0.174771
-0.0798486
0.170853
-0.079106
0.166893
-0.0769819
0.163039
-0.0734072
0.159423
-0.0684499
0.156177
-0.0621985
0.153418
-0.0548195
0.151244
-0.0465465
0.149721
-0.0376609
0.148882
-0.0284668
0.148722
-0.0192646
0.149203
-0.0103265
0.150285
-0.00187727
0.151874
0.00591878
0.153907
0.0129515
0.156294
0.0191483
0.15895
0.0244838
0.161798
0.0289696
0.164772
0.0326418
0.167813
0.0355516
0.170865
0.0377683
0.0394257
0.173805
0.191425
-0.0504237
-0.191684
0.190458
-0.0561783
0.18889
-0.0611634
0.186799
-0.0655722
0.184252
-0.0693349
0.181309
-0.0723732
0.178027
-0.0745886
0.17447
-0.0758679
0.170725
-0.0761031
0.166869
-0.0752497
0.162986
-0.0730991
0.159214
-0.0696354
0.155675
-0.0649108
0.15249
-0.0590131
0.149769
-0.0520983
0.147602
-0.0443802
0.146055
-0.0361134
0.145159
-0.0275711
0.144916
-0.0190216
0.145298
-0.0107081
0.146254
-0.00283326
0.147719
0.00445406
0.149621
0.0110492
0.151881
0.0168883
0.154419
0.0219459
0.15716
0.0262284
0.160037
0.0297644
0.162994
0.0325945
0.16598
0.0347832
0.0365336
0.168872
0.187998
-0.0498235
-0.188598
0.186773
-0.0549535
0.185022
-0.0594123
0.182805
-0.0633547
0.180177
-0.0667075
0.177192
-0.0693883
0.173903
-0.0712997
0.170369
-0.0723339
0.166677
-0.0724107
0.162885
-0.0714575
0.159085
-0.0692989
0.155398
-0.0659487
0.151936
-0.0614487
0.148809
-0.055886
0.146118
-0.0494074
0.143947
-0.0422098
0.142358
-0.0345245
0.141385
-0.0265975
0.141032
-0.0186689
0.14128
-0.0109558
0.142085
-0.00363861
0.143393
0.00314631
0.145137
0.00930485
0.147246
0.0147797
0.149645
0.0195467
0.152263
0.0236097
0.155037
0.0269912
0.157908
0.0297232
0.160829
0.0318623
0.0336782
0.163684
0.18449
-0.0489311
-0.185382
0.18304
-0.0535036
0.18112
-0.0574928
0.178784
-0.0610182
0.176079
-0.0640033
0.173055
-0.0663639
0.16976
-0.068005
0.166252
-0.0688257
0.16261
-0.0687689
0.158881
-0.0677282
0.155161
-0.065579
0.151556
-0.0623435
0.148167
-0.0580595
0.145094
-0.0528129
0.142429
-0.0467425
0.14025
-0.0400307
0.138614
-0.0328889
0.137556
-0.0255393
0.137085
-0.0181977
0.137187
-0.0110577
0.137828
-0.00427995
0.138961
0.00201314
0.140528
0.00773757
0.142465
0.0128427
0.144705
0.017307
0.147182
0.0211332
0.149833
0.0243399
0.152604
0.026952
0.155449
0.0290174
0.0308629
0.158265
0.180869
-0.0477753
-0.182025
0.179214
-0.0518489
0.177143
-0.0554214
0.174701
-0.0585757
0.17193
-0.0612327
0.168874
-0.0633078
0.165579
-0.06471
0.1621
-0.065347
0.158505
-0.0651742
0.154838
-0.064061
0.151194
-0.0619348
0.147665
-0.0588146
0.144343
-0.0547379
0.14132
-0.0497896
0.138679
-0.0441015
0.136492
-0.0378432
0.134811
-0.0312087
0.133672
-0.0244
0.133086
-0.0176113
0.133044
-0.0110157
0.13352
-0.0047561
0.134474
0.00105901
0.135856
0.00635538
0.13761
0.011089
0.139675
0.0152418
0.141992
0.0188166
0.144502
0.0218297
0.147153
0.0243009
0.1499
0.0262699
0.0281062
0.152657
0.177115
-0.0463807
-0.17851
0.175277
-0.0500108
0.173073
-0.0532165
0.170539
-0.0560421
0.167713
-0.058407
0.164633
-0.060228
0.161343
-0.0614197
0.157897
-0.0619005
0.154345
-0.0616229
0.150739
-0.0604544
0.147165
-0.0583614
0.143707
-0.0553566
0.140449
-0.0514794
0.137473
-0.0468134
0.134855
-0.0414841
0.132662
-0.0356501
0.130943
-0.0294899
0.129731
-0.0231879
0.129039
-0.0169192
0.128862
-0.010839
0.12918
-0.00507404
0.129959
0.000279895
0.131157
0.00515801
0.132723
0.00952283
0.134605
0.0133599
0.136748
0.0166731
0.139101
0.0194773
0.141612
0.0217894
0.14424
0.0236424
0.0254319
0.146914
0.17322
-0.0447734
-0.174827
0.171222
-0.0480124
0.168901
-0.0508963
0.16629
-0.053431
0.163419
-0.0555362
0.160323
-0.0571319
0.157041
-0.0581374
0.153626
-0.058486
0.150116
-0.0581129
0.146569
-0.0569065
0.143061
-0.0548542
0.13967
-0.0519648
0.13647
-0.0482802
0.13354
-0.0438827
0.130947
-0.0388919
0.128754
-0.0334562
0.127004
-0.0277407
0.12573
-0.0219138
0.124945
-0.0161342
0.124647
-0.0105406
0.124819
-0.00524587
0.125433
-0.000333976
0.126452
0.00413905
0.127833
0.00814184
0.129529
0.0116636
0.131492
0.0147097
0.133675
0.0172947
0.136031
0.0194334
0.138519
0.0211544
0.0228638
0.141087
0.169177
-0.0429809
-0.17097
0.167041
-0.0458764
0.164623
-0.0484778
0.161947
-0.0507551
0.15904
-0.0526294
0.155933
-0.0540252
0.152662
-0.0548665
0.149277
-0.0551011
0.145808
-0.0546438
0.142317
-0.0534151
0.138872
-0.0514092
0.135543
-0.0486356
0.1324
-0.045138
0.129515
-0.0409973
0.12695
-0.0363274
0.124762
-0.0312676
0.122992
-0.0259705
0.121668
-0.0205902
0.120804
-0.0152705
0.1204
-0.010136
0.12044
-0.00528674
0.120903
-0.000796204
0.121754
0.00328752
0.122957
0.00693869
0.124471
0.01015
0.126252
0.0129284
0.128259
0.0152884
0.130448
0.0172439
0.132782
0.018821
0.0204231
0.135222
0.164982
-0.0410299
-0.166933
0.16273
-0.0436243
0.160229
-0.0459768
0.1575
-0.0480256
0.154565
-0.0496944
0.151452
-0.0509127
0.148197
-0.0516114
0.14484
-0.0517441
0.141412
-0.0512155
0.137974
-0.0499773
0.134589
-0.0480235
0.13132
-0.0453666
0.128233
-0.0420517
0.125394
-0.0381581
0.122861
-0.0337944
0.120684
-0.0290909
0.118903
-0.024189
0.117542
-0.0192297
0.116615
-0.0143433
0.116121
-0.00964165
0.116048
-0.00521337
0.116374
-0.00112271
0.117072
0.00258938
0.118109
0.00590218
0.119447
0.00881149
0.12105
0.0113258
0.122878
0.0134598
0.124895
0.0152272
0.127063
0.0166527
0.0181267
0.12936
0.160632
-0.0389457
-0.162717
0.158284
-0.041276
0.155715
-0.0434081
0.152943
-0.0452532
0.149987
-0.0467386
0.146873
-0.047799
0.143637
-0.048375
0.140307
-0.048414
0.13692
-0.0478288
0.133534
-0.0465915
0.130206
-0.0446955
0.126996
-0.0421567
0.123966
-0.0390215
0.121175
-0.0353672
0.118678
-0.0312972
0.116521
-0.0269334
0.114738
-0.0224064
0.113353
-0.0178451
0.112378
-0.0133676
0.11181
-0.00907404
0.11164
-0.00504304
0.111848
-0.00133054
0.112408
0.00202877
0.113292
0.00501853
0.114466
0.00763727
0.115897
0.0098948
0.117551
0.0118059
0.119394
0.0133845
0.121392
0.0146547
0.0159868
0.123532
0.156123
-0.0367519
-0.158317
0.153696
-0.0388495
0.151073
-0.0407851
0.148268
-0.042448
0.145299
-0.0437694
0.142188
-0.0446884
0.138971
-0.0451576
0.135669
-0.0451123
0.132325
-0.0444848
0.128991
-0.0432574
0.12572
-0.0414248
0.12257
-0.039006
0.119597
-0.0360487
0.116857
-0.0326277
0.114401
-0.028841
0.11227
-0.0248025
0.110497
-0.0206325
0.1091
-0.0164487
0.10809
-0.0123577
0.107466
-0.00844927
0.107215
-0.00479283
0.107322
-0.00143701
0.107762
0.00158894
0.108508
0.00427241
0.109531
0.00661417
0.110801
0.008625
0.112287
0.0103198
0.113959
0.0117127
0.115785
0.0128279
0.0140102
0.117762
0.15145
-0.03447
-0.153732
0.148961
-0.0363612
0.146296
-0.03812
0.143467
-0.039619
0.140491
-0.040793
0.13739
-0.0415873
0.134193
-0.0419608
0.130922
-0.0418415
0.127622
-0.0411847
0.12434
-0.0399755
0.121127
-0.038212
0.118037
-0.0359161
0.115124
-0.0331357
0.11244
-0.0299433
0.11003
-0.0264314
0.107934
-0.0227058
0.106178
-0.0188771
0.104782
-0.0150523
0.103752
-0.0113275
0.103085
-0.00778267
0.102771
-0.00447916
0.102793
-0.00145908
0.103129
0.00125306
0.103754
0.00364777
0.10464
0.00572761
0.105761
0.00750401
0.107089
0.00899181
0.108597
0.0102052
0.110256
0.0111688
0.0121991
0.112067
0.146606
-0.0321195
-0.148957
0.144071
-0.0338253
0.141375
-0.0354244
0.138531
-0.036775
0.135554
-0.0378163
0.132468
-0.0385012
0.129294
-0.0387864
0.126058
-0.0386054
0.122804
-0.0379305
0.119576
-0.0367478
0.116423
-0.0350592
0.113396
-0.0328893
0.110547
-0.030286
0.107922
-0.0273187
0.105565
-0.0240744
0.10351
-0.020651
0.101783
-0.0171496
0.100397
-0.0136671
0.0993597
-0.0102897
0.0986656
-0.00708858
0.098304
-0.00411754
0.0982579
-0.00141298
0.0985063
0.00100467
0.0990256
0.00312849
0.0997908
0.00496238
0.100777
0.0065181
0.101958
0.00781021
0.103311
0.00885293
0.104808
0.009671
0.0105515
0.106456
0.141585
-0.0297177
-0.143987
0.139016
-0.0312556
0.136301
-0.0327095
0.133451
-0.0339254
0.130481
-0.0348462
0.127414
-0.035434
0.124266
-0.0356384
0.121069
-0.0354088
0.117864
-0.0347256
0.114694
-0.0335773
0.111604
-0.0319698
0.108645
-0.0299295
0.105862
-0.0275038
0.103303
-0.024759
0.101005
-0.0217763
0.0989993
-0.0186457
0.0973087
-0.015459
0.0959451
-0.0123036
0.0949118
-0.00925638
0.0942035
-0.00638028
0.0938084
-0.00372238
0.0937093
-0.00131395
0.0938859
0.000828071
0.0943156
0.00269886
0.0949747
0.00430323
0.0958399
0.00565295
0.096888
0.0067621
0.0980962
0.00764472
0.0994417
0.00832546
0.00906202
0.100931
0.136375
-0.0272799
-0.138813
0.133785
-0.0286657
0.131062
-0.0299865
0.128216
-0.0310789
0.125261
-0.0318912
0.122217
-0.03239
0.119101
-0.0325227
0.115949
-0.0322565
0.112797
-0.0315741
0.109688
-0.0304682
0.106666
-0.028948
0.103778
-0.0270412
0.101069
-0.0247944
0.0985798
-0.0222701
0.0963472
-0.0195437
0.0943989
-0.0166973
0.0927539
-0.013814
0.0914219
-0.0109716
0.0904041
-0.00823853
0.0896938
-0.00567
0.0892783
-0.00330693
0.0891405
-0.00117609
0.08926
0.000708587
0.0896149
0.00234393
0.0901828
0.0037353
0.0909416
0.00489419
0.0918697
0.005834
0.092946
0.0065684
0.0941499
0.00712159
0.00772286
0.095489
0.130963
-0.0248206
-0.133423
0.128367
-0.0260693
0.125647
-0.0272664
0.122812
-0.0282443
0.11988
-0.0289589
0.116865
-0.0293746
0.113789
-0.0294469
0.110686
-0.0291542
0.107594
-0.0284817
0.104552
-0.027426
0.101603
-0.0259993
0.0987922
-0.0242302
0.0961614
-0.0221636
0.0937496
-0.0198584
0.0915894
-0.0173835
0.0897057
-0.0148136
0.0881145
-0.0122228
0.0868233
-0.00968039
0.0858311
-0.00724634
0.0851299
-0.00496886
0.0847063
-0.00288327
0.0845425
-0.0010123
0.0846184
0.000632665
0.0849126
0.00204971
0.0854034
0.00324446
0.0860698
0.00422786
0.0868913
0.00501246
0.0878484
0.00561133
0.0889221
0.00604789
0.00652443
0.0901205
0.125334
-0.0223546
-0.1278
0.122744
-0.0234799
0.120038
-0.0245603
0.117226
-0.0254319
0.114323
-0.0260566
0.111344
-0.0263955
0.108316
-0.0264187
0.105271
-0.0261091
0.102244
-0.0254551
0.0992758
-0.0244574
0.0964069
-0.0231304
0.0936797
-0.021503
0.0911342
-0.0196181
0.0888063
-0.0175305
0.0867256
-0.0153028
0.0849138
-0.0130018
0.0833845
-0.0106935
0.0821426
-0.0084385
0.0811854
-0.00628912
0.0805035
-0.00428698
0.0800825
-0.00246231
0.0799045
-0.000834237
0.0799492
0.000587984
0.0801955
0.00180339
0.0806224
0.00281758
0.0812095
0.00364075
0.0819375
0.00428444
0.0827879
0.00476094
0.0837433
0.00509252
0.00545622
0.0848115
0.119467
-0.0198974
-0.121924
0.116897
-0.02091
0.114216
-0.0218794
0.111437
-0.0226524
0.108572
-0.0231918
0.105639
-0.023463
0.102668
-0.0234471
0.0996879
-0.0231293
0.0967352
-0.0225024
0.093848
-0.0215702
0.0910665
-0.0203489
0.0884307
-0.0188671
0.0859779
-0.0171654
0.0837412
-0.0152938
0.0817472
-0.0133088
0.0800149
-0.0112695
0.0785551
-0.00923369
0.0773706
-0.007254
0.0764569
-0.00537542
0.0758034
-0.0036335
0.0753949
-0.00205382
0.0752131
-0.000652347
0.0752376
0.000563482
0.0754476
0.00159337
0.0758225
0.00244265
0.0763426
0.00312063
0.0769894
0.00363769
0.0777452
0.00400516
0.0785938
0.00424385
0.00450739
0.0795427
0.113337
-0.0174654
-0.115769
0.110799
-0.0183724
0.108155
-0.0192357
0.105419
-0.0199162
0.102602
-0.0203751
0.0997278
-0.0205885
0.0968229
-0.0205422
0.0939184
-0.0202249
0.0910491
-0.0196332
0.0882526
-0.0187737
0.0855674
-0.0176637
0.0830314
-0.0163311
0.0806796
-0.0148135
0.0785419
-0.0131561
0.0766423
-0.0114091
0.0749969
-0.00962409
0.073614
-0.00785083
0.0724944
-0.00613444
0.0716321
-0.00451306
0.0710152
-0.00301662
0.0706279
-0.0016665
0.0704514
-0.000475849
0.0704655
0.000549391
0.0706495
0.00140935
0.0709832
0.00210895
0.0714474
0.00265644
0.0720241
0.00306097
0.0726965
0.00333277
0.0734495
0.00349087
0.00366739
0.0742895
0.106908
-0.0150746
-0.109298
0.104416
-0.0158806
0.101824
-0.0166432
0.099142
-0.0172347
0.096387
-0.0176201
0.0935827
-0.0177842
0.0907562
-0.0177156
0.0879383
-0.017407
0.0851636
-0.0168584
0.0824683
-0.0160785
0.0798897
-0.015085
0.0774631
-0.0139046
0.0752212
-0.0125715
0.0731911
-0.011126
0.0713937
-0.00961179
0.0698427
-0.00807308
0.068544
-0.00655217
0.0674965
-0.00508694
0.0666927
-0.00370918
0.0661197
-0.00244367
0.0657612
-0.00130795
0.0655981
-0.000312756
0.0656102
0.000537248
0.0657771
0.00124242
0.066079
0.00180712
0.0664969
0.00223847
0.0670136
0.00254433
0.0676126
0.00273369
0.0682799
0.00282359
0.00292636
0.069021
0.100133
-0.0127428
-0.102465
0.0977046
-0.0134518
0.0951783
-0.014117
0.092566
-0.0146223
0.0898878
-0.0149419
0.0871677
-0.0150641
0.0844332
-0.0149811
0.0817154
-0.0146891
0.079048
-0.014191
0.0764664
-0.0134969
0.0740059
-0.0126245
0.0716998
-0.0115985
0.0695778
-0.0104496
0.0676645
-0.0092127
0.0659779
-0.00792518
0.064529
-0.00662421
0.0633217
-0.00534487
0.062353
-0.00411825
0.0616142
-0.0029703
0.0610916
-0.00192109
0.0607684
-0.000984754
0.0606255
-0.000169854
0.0606428
0.000519951
0.0608001
0.0010851
0.0610779
0.00152931
0.0614579
0.00185853
0.0619229
0.00207927
0.0624573
0.00219925
0.0630476
0.00223331
0.00227562
0.0636984
0.0929535
-0.0104899
-0.0952064
0.0906059
-0.0111042
0.088162
-0.0116731
0.0856371
-0.0120975
0.0830529
-0.0123577
0.0804337
-0.0124449
0.0778075
-0.0123549
0.0752054
-0.0120871
0.0726607
-0.0116463
0.0702074
-0.0110436
0.0678787
-0.0102959
0.0657057
-0.00942543
0.0637152
-0.00845906
0.0619289
-0.00742643
0.0603622
-0.00635847
0.0590236
-0.00528561
0.0579149
-0.00423612
0.0570315
-0.00323486
0.0563635
-0.00230238
0.055897
-0.00145452
0.0556146
-0.000702379
0.0554974
-5.26475e-05
0.0555255
0.000491841
0.0556791
0.000931494
0.0559391
0.00126932
0.0562876
0.00151008
0.0567078
0.00165901
0.0571846
0.00172246
0.057705
0.00171297
0.00170804
0.0582725
0.0852836
-0.00833871
-0.0874348
0.0830374
-0.00885802
0.0806973
-0.00933297
0.0782812
-0.00968134
0.0758112
-0.0098877
0.0733129
-0.00994664
0.0708148
-0.00985681
0.0683478
-0.0096201
0.0659443
-0.00924282
0.0636367
-0.00873604
0.0614562
-0.00811537
0.0594311
-0.00740033
0.0575855
-0.00661344
0.0559381
-0.00577902
0.0545015
-0.00492189
0.0532819
-0.004066
0.0522792
-0.00323335
0.0514874
-0.00244307
0.0508958
-0.00171085
0.05049
-0.00104873
0.0502528
-0.000465161
0.0501654
3.47678e-05
0.0502084
0.000448881
0.0503624
0.000777475
0.0506089
0.00102284
0.0509303
0.00118861
0.0513106
0.00127876
0.0517347
0.00129833
0.0521902
0.0012575
0.00121842
0.0526798
0.077002
-0.00631493
-0.0790258
0.0748834
-0.00673941
0.0726736
-0.0071232
0.0703917
-0.00739948
0.0680614
-0.00755741
0.0657093
-0.00759446
0.0633641
-0.0075116
0.0610563
-0.00731237
0.0588172
-0.00700372
0.0566773
-0.00659612
0.0546652
-0.00610326
0.0528063
-0.00554146
0.0511217
-0.00492885
0.0496272
-0.00428446
0.0483325
-0.00362724
0.0472417
-0.00297518
0.0463528
-0.0023445
0.045659
-0.00174918
0.0451487
-0.00120063
0.0448076
-0.000707564
0.0446185
-0.000276124
0.0445634
8.9936e-05
0.0446233
0.000388961
0.0447797
0.000621084
0.0450146
0.000787902
0.0453112
0.00089201
0.0456537
0.000936259
0.0460276
0.000924407
0.0464208
0.000864312
0.000803994
0.0468352
0.0679301
-0.00445181
-0.0697933
0.0659729
-0.00478214
0.0639265
-0.0050768
0.0618121
-0.00528508
0.0596548
-0.00540019
0.0574821
-0.00542174
0.0553227
-0.00535216
0.0532061
-0.00519579
0.0511618
-0.00495942
0.0492179
-0.00465225
0.0474002
-0.00428555
0.0457309
-0.00387211
0.0442277
-0.00342564
0.0429033
-0.00296007
0.0417649
-0.00248888
0.0408144
-0.00202461
0.0400482
-0.00157839
0.0394587
-0.00115968
0.0390343
-0.000776185
0.0387605
-0.000433792
0.0386211
-0.0001367
0.0385986
0.000112452
0.0386751
0.000312408
0.0388331
0.000463119
0.0390555
0.000565547
0.0393261
0.000621365
0.0396299
0.000632447
0.0399529
0.000601428
0.0402832
0.000533962
0.000465053
0.0406222
0.0577888
-0.00279329
-0.0594474
0.0560376
-0.00303088
0.0542005
-0.00323966
0.0523004
-0.00338503
0.0503637
-0.00346343
0.0484176
-0.00347568
0.0464902
-0.00342474
0.0446093
-0.00331489
0.0428019
-0.00315202
0.0410931
-0.00294345
0.0395052
-0.00269762
0.0380567
-0.00242365
0.036762
-0.0021309
0.0356304
-0.00182853
0.0346667
-0.00152514
0.0338706
-0.0012285
0.0332376
-0.000945392
0.0327594
-0.000681509
0.0324247
-0.000441461
0.0322197
-0.000228822
0.0321292
-4.61949e-05
0.032137
0.000104676
0.0322265
0.000222865
0.0323815
0.000308145
0.0325861
0.00036093
0.0328254
0.000382109
0.0330851
0.000372756
0.0333519
0.000334566
0.0336147
0.000271199
0.000205716
0.033874
0.0461147
-0.00140419
-0.0475038
0.0446373
-0.00155348
0.0430801
-0.00168249
0.0414668
-0.00177175
0.0398233
-0.00181991
0.0381758
-0.00182812
0.03655
-0.00179902
0.0349713
-0.00173611
0.033463
-0.00164371
0.0320463
-0.0015268
0.0307394
-0.00139075
0.0295568
-0.00124102
0.0285088
-0.00108293
0.0276018
-0.000921459
0.0268377
-0.000761074
0.0262149
-0.000605683
0.0257281
-0.000458601
0.0253692
-0.000322579
0.0251276
-0.000199857
0.024991
-9.22226e-05
0.0249458
-9.98313e-07
0.0249776
7.27973e-05
0.025072
0.000128508
0.0252143
0.000165804
0.0253906
0.000184697
0.0255872
0.00018546
0.0257914
0.000168534
0.0259912
0.000134851
0.026176
8.63846e-05
3.5513e-05
0.0263462
0.0320801
-0.000398856
-0.0330855
0.0309964
-0.000469774
0.0298435
-0.000529615
0.0286424
-0.000570617
0.0274158
-0.000593267
0.0261866
-0.00059892
0.024977
-0.000589492
0.023808
-0.000567095
0.0226983
-0.000533982
0.021664
-0.000492472
0.020718
-0.000444848
0.0198703
-0.000393258
0.019127
-0.000339641
0.0184912
-0.000285688
0.017963
-0.000232825
0.0175395
-0.000182234
0.0172158
-0.000134876
0.0169848
-9.154e-05
0.0168378
-5.28876e-05
0.0167652
-1.95838e-05
0.0167564
7.7488e-06
0.0167993
2.99065e-05
0.0168826
4.51972e-05
0.0169946
5.37905e-05
0.0171238
5.5519e-05
0.017259
5.02461e-05
0.0173897
3.78519e-05
0.0175062
1.8326e-05
0.0176006
-8.00149e-06
-3.49372e-05
0.0176711
0.0141505
-0.0145494
0.0136808
0.0131512
0.0125805
0.0119873
0.0113884
0.0107989
0.0102318
0.00969778
0.00920531
0.00876046
0.0083672
0.00802756
0.00774188
0.00750905
0.00732682
0.00719194
0.0071004
0.00704751
0.00702793
0.00703568
0.00706558
0.00711078
0.00716457
0.00722009
0.00727034
0.00730819
0.00732652
0.00731851
0.00728358
0.35122
-0.178785
0.33383
-0.177232
0.317067
-0.174922
0.300809
-0.172339
0.284948
-0.169521
0.269398
-0.166475
0.254106
-0.163218
0.23904
-0.159761
0.224183
-0.156113
0.20953
-0.15228
0.195083
-0.148269
0.18085
-0.144084
0.166847
-0.139728
0.15309
-0.1352
0.139602
-0.130499
0.126408
-0.125619
0.113536
-0.120551
0.101018
-0.115281
0.088887
-0.109793
0.0771811
-0.104063
0.0659424
-0.0980596
0.0552191
-0.0917419
0.0450669
-0.0850543
0.0355524
-0.0779202
0.0267578
-0.0702311
0.0187905
-0.061826
0.0118002
-0.0524571
0.00601518
-0.0417188
0.0018369
-0.0289072
-0.0127125
0.334624
-0.162167
0.318161
-0.160769
0.302116
-0.158877
0.286422
-0.156645
0.271018
-0.154118
0.255874
-0.151331
0.240967
-0.148311
0.226286
-0.14508
0.211829
-0.141655
0.197598
-0.138049
0.183602
-0.134273
0.169853
-0.130336
0.156369
-0.126243
0.143166
-0.121998
0.130267
-0.1176
0.117693
-0.113046
0.10547
-0.108328
0.0936261
-0.103437
0.08219
-0.0983569
0.0711949
-0.0930677
0.0606776
-0.0875423
0.0506801
-0.0817444
0.0412513
-0.0756255
0.0324499
-0.0691188
0.024349
-0.0621302
0.017045
-0.054522
0.0106727
-0.0460848
0.00543626
-0.0364823
0.00167895
-0.0251499
-0.0110336
0.317354
-0.146428
0.30179
-0.145205
0.286482
-0.143569
0.271422
-0.141584
0.256594
-0.13929
0.241989
-0.136726
0.227604
-0.133926
0.21344
-0.130916
0.199503
-0.127718
0.185803
-0.124349
0.172353
-0.120824
0.159169
-0.117152
0.146269
-0.113343
0.13367
-0.109399
0.121394
-0.105323
0.109461
-0.101112
0.0978934
-0.096761
0.0867171
-0.0922606
0.0759582
-0.0875981
0.0656462
-0.0827558
0.0558139
-0.07771
0.0464987
-0.0724292
0.0377443
-0.0668711
0.0296035
-0.060978
0.0221423
-0.054669
0.0154474
-0.0478272
0.00964014
-0.0402775
0.00490123
-0.0317434
0.00152324
-0.0217719
-0.00951031
0.300882
-0.131454
0.286045
-0.130368
0.271381
-0.128905
0.256898
-0.127102
0.242606
-0.124998
0.228514
-0.122634
0.214632
-0.120044
0.200973
-0.117257
0.18755
-0.114295
0.174379
-0.111178
0.161475
-0.10792
0.148856
-0.104533
0.136538
-0.101025
0.12454
-0.0974012
0.11288
-0.0936633
0.101578
-0.0898098
0.0906534
-0.0858365
0.0801286
-0.0817359
0.0700273
-0.0774967
0.0603754
-0.0731038
0.0512019
-0.0685365
0.0425403
-0.0637675
0.0344296
-0.0587604
0.0269171
-0.0534655
0.0200623
-0.0478141
0.0139431
-0.0417079
0.0086673
-0.0350017
0.00439308
-0.0274692
0.00136722
-0.018746
-0.0081431
0.285157
-0.117115
0.270918
-0.116129
0.256808
-0.114795
0.24285
-0.113144
0.229066
-0.111213
0.215474
-0.109043
0.202095
-0.106665
0.188946
-0.104108
0.176045
-0.101394
0.163409
-0.0985423
0.151057
-0.0955672
0.139004
-0.0924799
0.127267
-0.0892884
0.115863
-0.0859976
0.10481
-0.0826096
0.0941235
-0.0791235
0.0838227
-0.0755357
0.0739268
-0.0718399
0.0644566
-0.0680265
0.0554351
-0.0640824
0.0468883
-0.0599896
0.0388457
-0.0557249
0.0313423
-0.051257
0.0244205
-0.0465438
0.0181336
-0.0415272
0.012551
-0.0361254
0.00776783
-0.0302186
0.00392085
-0.0236222
0.00121737
-0.0160425
-0.00692573
0.270154
-0.103314
0.256436
-0.10241
0.242831
-0.10119
0.229369
-0.0996815
0.216077
-0.0979222
0.202982
-0.0959479
0.190107
-0.0937895
0.177472
-0.0914727
0.165096
-0.0890188
0.152999
-0.086445
0.141197
-0.083765
0.129706
-0.0809892
0.118542
-0.0781247
0.107721
-0.0751763
0.0972572
-0.0721458
0.0871664
-0.0690327
0.0774648
-0.0658341
0.0681693
-0.0625445
0.0592986
-0.0591558
0.0508729
-0.0556567
0.0429152
-0.052032
0.035452
-0.0482617
0.0285144
-0.0443195
0.0221405
-0.0401698
0.0163776
-0.0357643
0.0112873
-0.0310351
0.00695288
-0.0258841
0.00349192
-0.0201612
0.00107869
-0.0136293
-0.00584704
0.255877
-0.0899961
0.242639
-0.0891722
0.229513
-0.088064
0.216533
-0.0867013
0.203729
-0.0851185
0.191129
-0.0833483
0.178758
-0.0814185
0.166638
-0.0793523
0.154788
-0.0771686
0.143226
-0.0748829
0.131968
-0.0725073
0.12103
-0.0700509
0.110425
-0.0675202
0.100168
-0.0649193
0.0902724
-0.0622499
0.0807514
-0.0595117
0.0716196
-0.0567022
0.062892
-0.0538169
0.0545849
-0.0508487
0.0467163
-0.0477881
0.0393068
-0.0446224
0.0323798
-0.0413347
0.0259632
-0.0379029
0.0200909
-0.0342975
0.014805
-0.0304784
0.0101599
-0.02639
0.00622803
-0.0219523
0.00311051
-0.0170437
0.000954369
-0.0114732
-0.00489267
0.242338
-0.0771373
0.229563
-0.076397
0.216906
-0.0754076
0.204403
-0.0741984
0.192086
-0.0728009
0.179981
-0.0712439
0.168114
-0.0695518
0.156507
-0.0677446
0.145177
-0.0658389
0.134142
-0.0638481
0.123417
-0.0617824
0.113016
-0.0596498
0.102952
-0.0574559
0.0932366
-0.055204
0.0838824
-0.0528957
0.0749015
-0.0505308
0.0663064
-0.0481072
0.0581105
-0.045621
0.0503282
-0.0430664
0.0429755
-0.0404355
0.0360707
-0.0377176
0.0296348
-0.0348988
0.0236926
-0.0319607
0.0182742
-0.0288792
0.0134172
-0.0256214
0.00916927
-0.0221421
0.00559372
-0.0183767
0.00277761
-0.0142276
0.000845755
-0.0095413
-0.00404692
0.22955
-0.0647298
0.217234
-0.0640808
0.205046
-0.0632193
0.19302
-0.0621728
0.181189
-0.0609694
0.169578
-0.0596336
0.158213
-0.0581861
0.147112
-0.0566438
0.136294
-0.0550208
0.125774
-0.0533282
0.115566
-0.0515745
0.105683
-0.0497665
0.0961355
-0.0479087
0.0869354
-0.0460039
0.0780932
-0.0440535
0.0696195
-0.0420571
0.0615256
-0.0400132
0.0538232
-0.0379186
0.0465252
-0.0357684
0.0396458
-0.0335561
0.0332014
-0.0312732
0.0272107
-0.0289081
0.0216959
-0.026446
0.016684
-0.0238672
0.0122081
-0.0211455
0.00831059
-0.0182445
0.00504669
-0.0151128
0.00249183
-0.0116727
0.000752863
-0.00780234
-0.00329406
0.217518
-0.052776
0.205664
-0.0522265
0.193946
-0.0515014
0.182399
-0.0506259
0.171053
-0.0496234
0.159934
-0.0485142
0.149063
-0.0473154
0.13846
-0.0460408
0.128141
-0.0447018
0.11812
-0.0433073
0.10841
-0.0418644
0.0990219
-0.0403784
0.0899661
-0.0388529
0.0812525
-0.0372903
0.0728906
-0.0356915
0.0648899
-0.0340565
0.0572605
-0.0323838
0.0500128
-0.0306709
0.0431583
-0.0289139
0.0367099
-0.0271077
0.030682
-0.0252453
0.0250916
-0.0233176
0.0199586
-0.021313
0.0153071
-0.0192158
0.0111668
-0.0170052
0.0075752
-0.0146529
0.00458098
-0.0121186
0.00225004
-0.0093418
0.00067485
-0.00622715
-0.00261921
0.206234
-0.041282
0.194846
-0.0408388
0.183602
-0.0402569
0.172534
-0.0395577
0.16167
-0.0387601
0.151036
-0.03788
0.140651
-0.0369308
0.130534
-0.0359233
0.120698
-0.0348663
0.111158
-0.0337668
0.101924
-0.0326303
0.0930064
-0.0314608
0.0844147
-0.0302612
0.0761577
-0.0290333
0.0682439
-0.0277778
0.060682
-0.0264945
0.0534807
-0.0251825
0.0466495
-0.0238397
0.0401989
-0.0224633
0.0341404
-0.0210491
0.028487
-0.0195919
0.0232541
-0.0180848
0.0184598
-0.0165186
0.0141257
-0.0148816
0.0102785
-0.0131581
0.00695179
-0.0113262
0.0041889
-0.0093557
0.00204804
-0.00720094
0.000610352
-0.00478947
-0.00200885
0.195673
-0.0302544
0.184756
-0.0299218
0.173986
-0.0294871
0.163395
-0.0289666
0.153009
-0.0283746
0.142852
-0.0277227
0.132942
-0.0270208
0.123295
-0.0262767
0.113926
-0.025497
0.104846
-0.0246865
0.0960648
-0.0238494
0.0875925
-0.0229886
0.0794374
-0.0221061
0.0716073
-0.0212032
0.06411
-0.0202805
0.0569533
-0.0193378
0.0501452
-0.0183744
0.0436943
-0.0173889
0.0376101
-0.016379
0.031903
-0.015342
0.026585
-0.014274
0.0216702
-0.0131699
0.0171748
-0.0120233
0.0131188
-0.0108256
0.00952622
-0.00956551
0.00642754
-0.00822754
0.00386178
-0.00678994
0.00188104
-0.0052202
0.000557748
-0.00346617
-0.00145111
0.185798
-0.0196976
0.175354
-0.0194774
0.165057
-0.0191905
0.154938
-0.018848
0.145023
-0.0184592
0.135332
-0.0180317
0.125883
-0.017572
0.116691
-0.017085
0.10777
-0.0165751
0.0991285
-0.0160454
0.0907777
-0.0154986
0.0827256
-0.0149365
0.0749801
-0.0143605
0.0675483
-0.0137714
0.0604373
-0.0131695
0.0536544
-0.0125549
0.0472068
-0.0119268
0.0411026
-0.0112846
0.0353502
-0.0106267
0.0299595
-0.00995132
0.0249415
-0.00925595
0.020309
-0.00853736
0.0160771
-0.00779139
0.0122641
-0.00701256
0.00889213
-0.00619358
0.00598912
-0.00532452
0.00359066
-0.00439148
0.00174412
-0.00337367
0.000515337
-0.00223739
-0.000935769
0.176564
-0.00961288
0.16659
-0.00950426
0.156763
-0.00936305
0.14711
-0.00919482
0.137655
-0.00900409
0.128418
-0.00879459
0.119415
-0.00856942
0.110661