/*--------------------------------*- C++ -*----------------------------------*\
  =========                 |
  \\      /  F ield         | OpenFOAM: The Open Source CFD Toolbox
   \\    /   O peration     | Website:  https://openfoam.org
    \\  /    A nd           | Version:  12
     \\/     M anipulation  |
\*---------------------------------------------------------------------------*/
FoamFile
{
    format      ascii;
    class       volScalarField;
    location    "140";
    object      pMean;
}
// * * * * * * * * * * * * * * * * * * * * * * * * * * * * * * * * * * * * * //

dimensions      [0 2 -2 0 0 0 0];

internalField   nonuniform List<scalar> 
6750
(
-0.0029926
-0.00302415
-0.00308344
-0.00327301
-0.00419604
-0.00115744
-0.00117751
-0.0012839
-0.00152838
-0.00185052
0.000908169
0.000867297
0.000758108
0.000580049
0.000452246
0.00303024
0.00295464
0.00285135
0.00272982
0.00267512
0.00511647
0.00499722
0.00488492
0.00479232
0.00477608
0.0070875
0.00692028
0.0067887
0.00670859
0.00671216
0.00889434
0.00867796
0.00852363
0.00844966
0.00846512
0.0105074
0.0102426
0.0100657
0.00999606
0.0100204
0.0119082
0.0115975
0.0113999
0.0113345
0.0113661
0.0130867
0.0127342
0.0125189
0.0124579
0.0124956
0.0140405
0.0136514
0.0134221
0.0133657
0.0134081
0.014774
0.0143545
0.0141152
0.0140634
0.0141092
0.0152981
0.0148543
0.0146097
0.0145618
0.0146098
0.0156287
0.0151662
0.0149223
0.0148767
0.0149251
0.0157808
0.0153125
0.0150741
0.0150266
0.0150735
0.0157811
0.0153128
0.0150744
0.0150269
0.0150738
0.0156296
0.0151671
0.0149232
0.0148776
0.014926
0.0152996
0.0148557
0.0146112
0.0145633
0.0146113
0.014776
0.0143565
0.0141173
0.0140655
0.0141113
0.014043
0.0136539
0.0134247
0.0133684
0.0134108
0.0130898
0.0127372
0.012522
0.0124611
0.0124987
0.0119117
0.0116011
0.0114035
0.0113381
0.0113698
0.0105114
0.0102467
0.0100698
0.0100002
0.0100246
0.00889875
0.0086824
0.00852814
0.00845424
0.00846975
0.00709227
0.00692509
0.00679357
0.00671354
0.00671714
0.00512154
0.00500233
0.0048901
0.00479758
0.00478134
0.00303555
0.00296
0.00285677
0.0027353
0.00268059
0.000913666
0.00087283
0.0007637
0.000585684
0.000457817
-0.00115182
-0.00117187
-0.00127821
-0.00152267
-0.00184492
-0.00298691
-0.00301845
-0.00307771
-0.0032673
-0.00419038
-0.00966708
-0.00918848
-0.00793675
-0.00703028
-0.00638594
-0.00587607
-0.00547188
-0.00515472
-0.00489864
-0.00470051
-0.00455781
-0.00442527
-0.00431876
-0.00423935
-0.00418947
-0.00417511
-0.00420294
-0.00427685
-0.0044006
-0.00457807
-0.00480908
-0.00502677
-0.00527648
-0.00554518
-0.00581819
-0.00608672
-0.00634339
-0.00656864
-0.00675189
-0.00706627
-0.00608663
-0.00543356
-0.00476165
-0.00444604
-0.00427636
-0.0041733
-0.00413203
-0.00413781
-0.00416927
-0.00423924
-0.00433217
-0.00438759
-0.00442555
-0.00444121
-0.00443658
-0.00442147
-0.00441
-0.00441656
-0.00445516
-0.00453368
-0.00464872
-0.00485404
-0.00508205
-0.00534656
-0.00564173
-0.00595893
-0.00629197
-0.00662221
-0.0068965
-0.0071883
-0.00367649
-0.00353475
-0.00326671
-0.0031511
-0.00310024
-0.00310044
-0.00316006
-0.003266
-0.00340709
-0.00361395
-0.00384302
-0.00405488
-0.00426613
-0.00446528
-0.00464666
-0.00481023
-0.00495982
-0.00510196
-0.00524432
-0.00539444
-0.00555785
-0.00573257
-0.00592505
-0.00613556
-0.00636207
-0.00660176
-0.00685585
-0.00711446
-0.00729955
-0.00740471
-0.00216393
-0.00235741
-0.00223811
-0.00217347
-0.00217115
-0.00222981
-0.00235245
-0.00252558
-0.00274949
-0.00306487
-0.00340097
-0.00374886
-0.00411496
-0.00448314
-0.00484145
-0.00518114
-0.0054963
-0.00578417
-0.00604484
-0.00628105
-0.00649656
-0.0066902
-0.00687099
-0.00704382
-0.00721179
-0.00737767
-0.00754935
-0.00772523
-0.00780591
-0.0076849
-0.000955257
-0.00126182
-0.00120557
-0.00119573
-0.00126036
-0.00139207
-0.00158975
-0.00184365
-0.00216504
-0.00258734
-0.00303299
-0.00351197
-0.00401946
-0.00453628
-0.00504594
-0.00553366
-0.00598702
-0.00639706
-0.00675874
-0.00707106
-0.00733618
-0.00755747
-0.00774157
-0.00789612
-0.00802801
-0.00814398
-0.00825729
-0.00837339
-0.00837236
-0.00803406
0.000136944
-0.000192731
-0.00018734
-0.000243071
-0.000380161
-0.000587401
-0.000863528
-0.00120389
-0.0016313
-0.00215757
-0.00271635
-0.00332273
-0.00396373
-0.00461768
-0.00526433
-0.00588428
-0.0064604
-0.00697945
-0.00743289
-0.00781719
-0.00813339
-0.00838595
-0.008582
-0.00873067
-0.0088411
-0.00892274
-0.00899345
-0.00906384
-0.00899643
-0.00845958
0.00114309
0.000824659
0.000781709
0.000661324
0.000455227
0.000174712
-0.000178674
-0.000606352
-0.00114254
-0.00176816
-0.0024401
-0.0031696
-0.00393801
-0.00472146
-0.00549634
-0.00623945
-0.00692995
-0.00755125
-0.00809212
-0.00854711
-0.00891628
-0.00920411
-0.00941858
-0.00956995
-0.00966885
-0.00972678
-0.00976559
-0.00979955
-0.00967467
-0.00896138
0.00208061
0.00179286
0.0017062
0.00152344
0.00125061
0.000897595
0.000467074
-5.02819e-05
-0.000693648
-0.00141551
-0.00220008
-0.00304895
-0.00393968
-0.00484644
-0.00574265
-0.00660195
-0.00740045
-0.00811886
-0.00874379
-0.00926828
-0.00969154
-0.010018
-0.0102561
-0.010417
-0.0105123
-0.0105557
-0.0105715
-0.0105774
-0.0104028
-0.00953615
0.00296816
0.00272378
0.00259648
0.00235185
0.00201243
0.00158735
0.00107767
0.000466171
-0.000277773
-0.00109695
-0.0019933
-0.00295837
-0.00396731
-0.00499246
-0.00600458
-0.00697455
-0.00787599
-0.00868741
-0.00939365
-0.00998654
-0.0104646
-0.0108322
-0.0110981
-0.0112741
-0.0113727
-0.0114089
-0.0114098
-0.0113945
-0.0111768
-0.0101799
0.00382005
0.00362596
0.00345934
0.0031528
0.00274609
0.00224898
0.00165839
0.000948002
0.000109576
-0.00080982
-0.00181666
-0.00289546
-0.00401961
-0.00515952
-0.00628355
-0.00736021
-0.00836096
-0.00926246
-0.0100481
-0.0107088
-0.0112424
-0.0116533
-0.0119504
-0.012146
-0.0122536
-0.0122889
-0.012282
-0.0122518
-0.0119961
-0.0108891
0.00464653
0.00450663
0.00430198
0.00393207
0.00345643
0.00288676
0.00221331
0.00140151
0.000471889
-0.000550228
-0.00166692
-0.00285804
-0.00409551
-0.00534781
-0.00658113
-0.00776188
-0.00885964
-0.00984948
-0.0107136
-0.011442
-0.0120322
-0.0124883
-0.0128197
-0.0130389
-0.01316
-0.0131998
-0.0131909
-0.013151
-0.0128613
-0.0116617
0.0054562
0.00537284
0.00513095
0.00469621
0.00415009
0.00350594
0.00274487
0.00183374
0.000812216
-0.000314741
-0.00154131
-0.00284429
-0.00419425
-0.00555776
-0.00689901
-0.00818253
-0.00937621
-0.0104537
-0.0113962
-0.0121929
-0.012841
-0.0133446
-0.013713
-0.0139593
-0.0140979
-0.0141469
-0.0141409
-0.0140959
-0.0137757
-0.0124969
0.0062574
0.00623199
0.00595346
0.00545199
0.00483414
0.00411169
0.00325651
0.00225131
0.00113348
-0.000100255
-0.00143739
-0.00285272
-0.00431537
-0.00579006
-0.00723906
-0.00862522
-0.00991488
-0.0110804
-0.0121021
-0.0129685
-0.0136763
-0.0142296
-0.014638
-0.0149147
-0.0150747
-0.0151369
-0.0151384
-0.0150925
-0.0147442
-0.0133963
0.00705819
0.00709141
0.006777
0.00620657
0.00551481
0.00471039
0.0037558
0.00265871
0.0014394
9.65293e-05
-0.00135283
-0.00288203
-0.00445866
-0.00604561
-0.0076034
-0.00909323
-0.0104801
-0.0117351
-0.0128377
-0.0137758
-0.0145458
-0.0151517
-0.0156032
-0.0159138
-0.0160987
-0.0161782
-0.0161915
-0.0161485
-0.0157739
-0.0143639
0.00786546
0.00796128
0.00761136
0.00696944
0.00619934
0.00530638
0.00425155
0.00305999
0.00173412
0.000278966
-0.00128541
-0.00293113
-0.00462416
-0.00632565
-0.00799442
-0.00959016
-0.0110765
-0.0124235
-0.0136097
-0.0146224
-0.0154578
-0.0161197
-0.0166179
-0.016966
-0.0171798
-0.0172806
-0.0173099
-0.0172733
-0.0168741
-0.0154062
0.0086869
0.00885312
0.00846852
0.00775169
0.00689632
0.00590508
0.00475246
0.00345947
0.00202186
0.000450365
-0.00123301
-0.00299907
-0.00481217
-0.00663171
-0.00841493
-0.01012
-0.0117094
-0.0131521
-0.0144256
-0.0155169
-0.0164217
-0.0171436
-0.0176926
-0.0180825
-0.0183293
-0.0184557
-0.0185053
-0.0184788
-0.0180565
-0.0165328
0.00953289
0.00978039
0.00936105
0.00856397
0.00761497
0.00651687
0.00526559
0.00386272
0.00230741
0.000614214
-0.00119349
-0.00308509
-0.00502326
-0.00696575
-0.00886825
-0.0106876
-0.0123848
-0.0139279
-0.0152938
-0.0164686
-0.0174477
-0.0182348
-0.0188395
-0.019276
-0.0195605
-0.0197173
-0.019792
-0.0197795
-0.0193355
-0.0177565
0.0104209
0.0107569
0.010304
0.00941624
0.00836211
0.00715601
0.00579803
0.00427643
0.00259615
0.000774245
-0.00116471
-0.00318859
-0.00525841
-0.0073303
-0.00935842
-0.0112982
-0.0131095
-0.0147594
-0.0162238
-0.0174884
-0.0185481
-0.0194062
-0.0200727
-0.0205615
-0.0208893
-0.021082
-0.0211873
-0.0211933
-0.0207291
-0.0190944
0.0113715
0.011797
0.0113115
0.0103243
0.00915163
0.00783479
0.0063579
0.00470799
0.00289398
0.000934507
-0.00114447
-0.00330923
-0.0055191
-0.00772862
-0.00989045
-0.0119587
-0.013892
-0.0156564
-0.0172271
-0.0185891
-0.0197368
-0.0206735
-0.0214089
-0.0219571
-0.0223349
-0.02257
-0.0227121
-0.0227417
-0.0222593
-0.020568
0.0124055
0.0129253
0.0124046
0.0113039
0.0100033
0.00856546
0.00695684
0.00516704
0.00320794
0.00109961
-0.00113051
-0.003447
-0.00580752
-0.00816502
-0.0104707
-0.0126773
-0.0147424
-0.0166311
-0.0183176
-0.0197863
-0.0210312
-0.0220554
-0.0228683
-0.0234842
-0.0239201
-0.0242053
-0.0243918
-0.0244516
-0.023954
-0.0222056
0.0135538
0.0141718
0.0136077
0.0123769
0.010941
0.00936491
0.00760895
0.00566487
0.00354624
0.00127472
-0.00112055
-0.00360244
-0.00612691
-0.00864533
-0.0111075
-0.0134648
-0.0156737
-0.0176984
-0.0195123
-0.0210991
-0.0224525
-0.023575
-0.0244761
-0.0251698
-0.0256736
-0.0260188
-0.0262595
-0.0263569
-0.0258481
-0.024043
0.0148589
0.0155697
0.01495
0.0135786
0.0119904
0.0102546
0.00833223
0.00621531
0.00391865
0.00146575
-0.00111243
-0.00377695
-0.00648205
-0.00917755
-0.0118118
-0.014335
-0.0167026
-0.0188778
-0.0208333
-0.0225521
-0.0240275
-0.0252616
-0.0262638
-0.0270479
-0.0276318
-0.0280485
-0.0283546
-0.0285001
-0.0279865
-0.0261271
0.0163753
0.0171705
0.0164807
0.0149524
0.0131841
0.011263
0.00914957
0.00683558
0.00433702
0.00167938
-0.00110436
-0.00397338
-0.00688019
-0.00977303
-0.0125989
-0.0153069
-0.0178514
-0.0201949
-0.0223093
-0.0241773
-0.0257914
-0.0271535
-0.0282727
-0.0291627
-0.0298419
-0.0303448
-0.0307306
-0.0309377
-0.0304287
-0.0285199
0.0181819
0.0190477
0.018269
0.0165507
0.0145667
0.012427
0.0100904
0.0075476
0.0048159
0.00192316
-0.00109542
-0.00419705
-0.00733245
-0.0104483
-0.0134903
-0.0164066
-0.0191509
-0.0216847
-0.0239797
-0.0260177
-0.0277912
-0.0293015
-0.0305575
-0.0315728
-0.0323659
-0.0329738
-0.0334573
-0.033743
-0.0332532
-0.0313055
0.0204017
0.0213067
0.0204014
0.0184462
0.0162008
0.0137976
0.0111944
0.00837997
0.00537345
0.00220536
-0.00108666
-0.00445763
-0.00785644
-0.0112283
-0.0145178
-0.0176722
-0.0206448
-0.0233967
-0.0258991
-0.0281337
-0.0300924
-0.0317764
-0.0331942
-0.034359
-0.03529
-0.0360268
-0.036631
-0.0370169
-0.0365672
-0.0345999
0.0231999
0.0240992
0.0230046
0.0207475
0.018176
0.0154476
0.012517
0.00937169
0.00603298
0.00253454
-0.00108311
-0.00477265
-0.00848104
-0.0121521
-0.0157297
-0.0191608
-0.0223985
-0.0254039
-0.0281483
-0.0306131
-0.03279
-0.0346801
-0.0362914
-0.0376369
-0.0387363
-0.0396317
-0.040387
-0.0409024
-0.0405249
-0.0385712
0.0268667
0.0276563
0.026272
0.0236179
0.0206295
0.0174855
0.0141389
0.0105766
0.00682333
0.00291659
-0.00109969
-0.00517551
-0.00925602
-0.0132842
-0.0172036
-0.0209619
-0.0245127
-0.0278182
-0.0308501
-0.0335901
-0.0360298
-0.0381698
-0.0400178
-0.0415861
-0.0428945
-0.0439871
-0.0449293
-0.0456124
-0.0453542
-0.0434726
0.0318965
0.0323589
0.0304973
0.0272978
0.0237552
0.0200603
0.016166
0.0120611
0.00777469
0.00334905
-0.00116784
-0.00572307
-0.0102603
-0.0147222
-0.0190538
-0.0232043
-0.0271298
-0.0307948
-0.0341726
-0.0372461
-0.0400074
-0.042457
-0.0446016
-0.046453
-0.0480309
-0.0493795
-0.050564
-0.051474
-0.0514267
-0.0497407
0.0392157
0.0389579
0.0363235
0.0323752
0.0280742
0.0236019
0.0189218
0.014037
0.0089884
0.00382852
-0.00138714
-0.00660106
-0.0117554
-0.0167942
-0.0216657
-0.0263237
-0.0307293
-0.0348518
-0.0386674
-0.0421604
-0.045327
-0.0481681
-0.0506834
-0.0528827
-0.0547837
-0.0564262
-0.0578703
-0.0590223
-0.059278
-0.0580074
0.0521666
0.0501597
0.0458488
0.0405542
0.0349746
0.0292082
0.0232466
0.0171255
0.0109053
0.00464941
-0.00158173
-0.00773124
-0.013747
-0.0195832
-0.0252003
-0.0305659
-0.0356535
-0.0404417
-0.0449158
-0.0490647
-0.0528764
-0.0563461
-0.0594808
-0.0622822
-0.064757
-0.0669288
-0.0688457
-0.0704881
-0.0714744
-0.07108
-0.00631916
-0.00525913
-0.00347435
-0.00201576
-0.000756456
0.000434303
0.00158508
0.00270313
0.00379757
0.00487793
0.0059532
0.0070326
0.00812613
0.00924448
0.0103991
0.0116035
0.0128739
0.01423
0.0156944
0.0172937
0.019063
0.0210474
0.0233042
0.0259109
0.0289743
0.0326505
0.0371491
0.0427549
0.0496652
0.0588333
-0.00191802
-0.000830837
0.000389397
0.00143371
0.00238951
0.00331563
0.0042231
0.0051164
0.00600299
0.00689106
0.00778875
0.00870434
0.00964664
0.0106252
0.0116507
0.012736
0.0138965
0.015151
0.0165224
0.0180392
0.0197391
0.0216713
0.0239013
0.0265193
0.0296525
0.0334869
0.0382891
0.0444582
0.0524798
0.0633439
0.000620812
0.00159735
0.00255144
0.00341953
0.00427158
0.00512561
0.00597946
0.00683467
0.00769657
0.00857143
0.00946589
0.0103872
0.0113434
0.0123436
0.0133984
0.0145204
0.0157253
0.0170322
0.0184647
0.0200533
0.0218378
0.0238709
0.0262238
0.0289954
0.0323259
0.0364186
0.0415732
0.048244
0.057085
0.0691712
0.00286306
0.00372941
0.00456836
0.00535499
0.00614088
0.00693779
0.00774565
0.00856779
0.00940982
0.0102778
0.0111782
0.0121181
0.0131054
0.0141494
0.015261
0.0164532
0.0177421
0.0191478
0.0206954
0.022417
0.0243548
0.0265646
0.0291221
0.0321317
0.0357411
0.0401629
0.04571
0.0528481
0.0623184
0.0752199
0.0049581
0.00572832
0.00647492
0.00718782
0.00791145
0.00865747
0.00942732
0.0102244
0.0110537
0.0119207
0.0128315
0.0137929
0.0148129
0.0159009
0.0170681
0.0183281
0.0196979
0.0211984
0.0228562
0.0247053
0.0267902
0.0291696
0.0319229
0.0351591
0.0390314
0.0437591
0.0496638
0.0572173
0.0672412
0.0808757
0.00687458
0.00755819
0.00822499
0.00887532
0.00954922
0.0102571
0.0110001
0.0117814
0.0126053
0.0134769
0.014402
0.0153872
0.0164405
0.0175714
0.0187914
0.0201144
0.0215581
0.0231443
0.0249006
0.0268625
0.0290764
0.0316033
0.0345255
0.0379558
0.0420518
0.0470386
0.0532459
0.0611554
0.0716682
0.0859983
0.00860578
0.00921126
0.0098096
0.0104083
0.011043
0.0117219
0.012446
0.0132179
0.0140416
0.0149218
0.015864
0.0168746
0.0179615
0.0191342
0.0204044
0.0217866
0.0232986
0.024963
0.0268082
0.028871
0.031199
0.0338551
0.0369238
0.0405206
0.0448068
0.0500122
0.0564741
0.0646852
0.0756123
0.0905594
0.0101446
0.0106795
0.0112189
0.0117752
0.0123787
0.0130357
0.0137468
0.014514
0.015341
0.016232
0.0171922
0.018228
0.0193471
0.020559
0.0218757
0.0233118
0.0248855
0.02662
0.0285443
0.0306961
0.033124
0.0358923
0.0390873
0.0428264
0.0472739
0.0526634
0.0593387
0.0678025
0.0790705
0.0945321
0.0114815
0.0119532
0.0124423
0.0129642
0.0135434
0.0141842
0.0148866
0.0156523
0.0164845
0.017387
0.0183649
0.0194242
0.0205727
0.02182
0.023178
0.0246615
0.0262892
0.0280845
0.0300771
0.0323052
0.0348183
0.0376818
0.040983
0.0448414
0.0494231
0.0549647
0.0618157
0.0704872
0.0820306
0.0979006
0.0126092
0.0130254
0.0134728
0.0139675
0.0145282
0.0151571
0.015854
0.0166201
0.0174582
0.018372
0.019366
0.0204463
0.0216205
0.0228982
0.0242915
0.0258154
0.0274886
0.0293349
0.0313845
0.033676
0.0362595
0.0392012
0.0425895
0.0465448
0.0512352
0.0568994
0.0638913
0.0727286
0.0844846
0.100678
0.0135252
0.0138943
0.0143083
0.0147823
0.0153292
0.0159497
0.0166432
0.0174108
0.0182547
0.0191784
0.0201862
0.0212842
0.0224798
0.0237827
0.0252049
0.0267616
0.0284717
0.0303593
0.0324546
0.0347969
0.0374366
0.0404404
0.0438975
0.0479292
0.0527048
0.0584645
0.0655659
0.0745307
0.086443
0.102894
0.0142324
0.0145638
0.0149524
0.0154111
0.0159481
0.0165628
0.0172544
0.0180237
0.0188727
0.0198046
0.0208236
0.0219356
0.023148
0.0244705
0.0259152
0.0274973
0.0292359
0.0311551
0.0332855
0.0356665
0.0383489
0.0413999
0.044909
0.0489983
0.0538379
0.0596689
0.0668519
0.0759101
0.0879333
0.104582
0.0147395
0.0150428
0.0154133
0.0158616
0.0163919
0.0170028
0.0176934
0.0184643
0.0193173
0.0202553
0.0212826
0.0224048
0.0236295
0.0249663
0.0264272
0.0280275
0.0297865
0.0317283
0.0338838
0.0362924
0.0390052
0.0420897
0.0456356
0.0497656
0.0546502
0.0605312
0.0677716
0.0768931
0.0889921
0.10578
0.0150597
0.0153449
0.015704
0.0161459
0.0166722
0.0172809
0.0179711
0.0187432
0.0195989
0.0205409
0.0215735
0.0227024
0.023935
0.0252808
0.0267521
0.0283641
0.0301361
0.0320923
0.0342636
0.0366897
0.0394218
0.0425274
0.0460967
0.0502523
0.0551652
0.0610774
0.0683541
0.0775132
0.0896543
0.106542
0.0152103
0.0154866
0.0158404
0.0162793
0.0168038
0.0174115
0.0181016
0.0188744
0.0197314
0.0206755
0.0217107
0.0228427
0.0240791
0.0254293
0.0269056
0.0285232
0.0303013
0.0322644
0.0344434
0.0368778
0.0396192
0.0427349
0.0463153
0.0504831
0.0554096
0.0613366
0.0686308
0.0778065
0.0899613
0.106912
0.0152106
0.0154869
0.0158407
0.0162796
0.0168041
0.0174118
0.0181019
0.0188747
0.0197317
0.0206757
0.0217109
0.022843
0.0240793
0.0254296
0.0269058
0.0285234
0.0303015
0.0322646
0.0344435
0.036878
0.0396193
0.0427351
0.0463155
0.0504833
0.0554098
0.0613368
0.0686309
0.0778066
0.0899615
0.106912
0.0150607
0.0153458
0.015705
0.0161468
0.016673
0.0172818
0.0179719
0.018744
0.0195997
0.0205417
0.0215743
0.0227032
0.0239357
0.0252815
0.0267528
0.0283647
0.0301366
0.0320928
0.0342641
0.0366902
0.0394223
0.0425279
0.0460972
0.0502529
0.0551658
0.0610779
0.0683545
0.0775135
0.0896549
0.106543
0.014741
0.0150444
0.0154148
0.0158631
0.0163933
0.0170042
0.0176948
0.0184657
0.0193187
0.0202567
0.0212839
0.022406
0.0236307
0.0249674
0.0264282
0.0280285
0.0297874
0.0317292
0.0338846
0.0362932
0.0390061
0.0420905
0.0456365
0.0497665
0.0546512
0.0605321
0.0677722
0.0768936
0.088993
0.105781
0.0142345
0.0145659
0.0149545
0.0154131
0.0159501
0.0165648
0.0172563
0.0180256
0.0188746
0.0198064
0.0208253
0.0219372
0.0231496
0.0244721
0.0259167
0.0274987
0.0292372
0.0311563
0.0332867
0.0356676
0.0383501
0.0414011
0.0449102
0.0489996
0.0538392
0.0596702
0.066853
0.0759111
0.0879346
0.104583
0.0135279
0.013897
0.014311
0.0147849
0.0153317
0.0159522
0.0166457
0.0174132
0.0182571
0.0191807
0.0201884
0.0212863
0.0224818
0.0237846
0.0252068
0.0267634
0.0284734
0.0303609
0.0324562
0.0347984
0.0374381
0.040442
0.043899
0.0479307
0.0527064
0.0584662
0.0655675
0.0745323
0.0864448
0.102896
0.0126124
0.0130286
0.0134759
0.0139706
0.0145313
0.0151601
0.0158569
0.016623
0.017461
0.0183747
0.0193686
0.0204487
0.0216229
0.0229005
0.0242937
0.0258175
0.0274906
0.0293369
0.0313864
0.0336779
0.0362614
0.0392031
0.0425912
0.0465466
0.0512371
0.0569016
0.0638937
0.0727309
0.084487
0.10068
0.0114852
0.0119569
0.0124459
0.0129678
0.0135469
0.0141877
0.0148899
0.0156556
0.0164877
0.0173901
0.0183679
0.0194271
0.0205755
0.0218227
0.0231805
0.024664
0.0262916
0.0280868
0.0300794
0.0323075
0.0348205
0.0376839
0.040985
0.0448433
0.0494252
0.0549675
0.0618189
0.0704902
0.0820336
0.0979026
0.0101488
0.0106837
0.011223
0.0117792
0.0123826
0.0130396
0.0137506
0.0145177
0.0153446
0.0162354
0.0171955
0.0182312
0.0193501
0.020562
0.0218786
0.0233146
0.0248883
0.0266227
0.028547
0.0306987
0.0331265
0.0358947
0.0390895
0.0428287
0.0472765
0.0526668
0.0593427
0.0678063
0.0790737
0.0945343
0.00861043
0.0092159
0.00981414
0.0104128
0.0110473
0.0117261
0.0124502
0.013222
0.0140456
0.0149256
0.0158676
0.0168781
0.0179649
0.0191375
0.0204076
0.0217897
0.0233016
0.024966
0.0268112
0.0288739
0.0312018
0.0338577
0.0369263
0.0405231
0.0448098
0.0500162
0.0564789
0.0646897
0.0756156
0.0905617
0.00687957
0.00756316
0.00822988
0.00888009
0.0095539
0.0102616
0.0110046
0.0117857
0.0126095
0.013481
0.014406
0.0153911
0.0164443
0.017575
0.0187948
0.0201178
0.0215615
0.0231476
0.0249038
0.0268657
0.0290794
0.0316062
0.0345283
0.0379587
0.0420553
0.0470433
0.0532514
0.0611605
0.0716716
0.0860004
0.00496336
0.00573356
0.00648008
0.00719288
0.00791641
0.00866234
0.00943208
0.0102291
0.0110582
0.0119252
0.0128358
0.0137971
0.014817
0.0159048
0.0170718
0.0183318
0.0197015
0.0212019
0.0228597
0.0247088
0.0267935
0.0291728
0.031926
0.0351624
0.0390354
0.0437644
0.0496698
0.0572226
0.0672447
0.0808775
0.0028685
0.00373485
0.00457373
0.00536027
0.00614608
0.0069429
0.00775066
0.0085727
0.00941462
0.0102825
0.0111828
0.0121226
0.0131098
0.0141536
0.015265
0.0164571
0.017746
0.0191517
0.0206992
0.0224207
0.0243584
0.0265681
0.0291256
0.0321356
0.0357457
0.0401686
0.0457163
0.0528535
0.0623217
0.0752214
0.000626335
0.00160291
0.00255697
0.003425
0.00427698
0.00513093
0.00598469
0.0068398
0.00770161
0.00857636
0.00947072
0.0103919
0.011348
0.0123481
0.0134027
0.0145247
0.0157295
0.0170362
0.0184687
0.0200573
0.0218417
0.0238747
0.0262278
0.0289998
0.0323309
0.0364246
0.0415794
0.0482488
0.0570878
0.0691727
-0.00191247
-0.000825145
0.000395079
0.00143932
0.00239505
0.00332108
0.00422847
0.0051217
0.00600819
0.00689619
0.00779379
0.00870928
0.00965147
0.0106299
0.0116553
0.0127405
0.0139009
0.0151553
0.0165265
0.0180433
0.0197431
0.0216753
0.0239055
0.0265241
0.0296579
0.0334927
0.0382945
0.0444619
0.052482
0.0633455
-0.00631325
-0.00525302
-0.00346838
-0.00200997
-0.000750792
0.000439844
0.00159053
0.00270847
0.0038028
0.00488305
0.00595822
0.00703752
0.00813093
0.00924917
0.0104037
0.0116079
0.0128782
0.0142341
0.0156984
0.0172976
0.0190669
0.0210513
0.0233083
0.0259159
0.0289796
0.0326556
0.0371532
0.0427573
0.0496668
0.0588353
0.0521692
0.0501626
0.0458513
0.0405565
0.0349768
0.0292105
0.0232489
0.0171276
0.010907
0.00465051
-0.00158128
-0.00773149
-0.013748
-0.0195848
-0.0252026
-0.0305688
-0.035657
-0.0404457
-0.0449202
-0.0490694
-0.0528815
-0.0563513
-0.0594861
-0.0622876
-0.0647625
-0.0669343
-0.0688513
-0.070494
-0.0714807
-0.0710866
0.0392172
0.0389591
0.0363249
0.032377
0.0280762
0.0236039
0.0189236
0.0140383
0.0089892
0.00382875
-0.00138751
-0.00660203
-0.0117569
-0.0167963
-0.0216683
-0.0263269
-0.030733
-0.0348561
-0.038672
-0.0421654
-0.0453323
-0.0481737
-0.0506891
-0.0528885
-0.0547895
-0.0564321
-0.0578761
-0.0590281
-0.0592837
-0.058013
0.0318984
0.0323612
0.0304998
0.0273005
0.0237577
0.0200624
0.0161675
0.012062
0.00777495
0.00334871
-0.00116873
-0.00572448
-0.0102622
-0.0147246
-0.0190566
-0.0232076
-0.0271337
-0.0307992
-0.0341775
-0.0372514
-0.0400132
-0.0424631
-0.044608
-0.0464597
-0.0480376
-0.0493861
-0.0505705
-0.0514802
-0.0514326
-0.049746
0.0268701
0.0276598
0.0262752
0.0236206
0.0206315
0.0174868
0.0141394
0.0105765
0.00682266
0.00291546
-0.00110122
-0.00517739
-0.00925825
-0.0132868
-0.0172066
-0.0209653
-0.0245166
-0.0278227
-0.0308551
-0.0335957
-0.0360361
-0.0381766
-0.0400251
-0.0415937
-0.0429023
-0.0439948
-0.0449368
-0.0456194
-0.0453604
-0.0434778
0.0232041
0.024103
0.0230077
0.0207495
0.018177
0.0154478
0.0125165
0.00937055
0.00603138
0.00253261
-0.0010853
-0.00477504
-0.00848364
-0.012155
-0.0157329
-0.0191644
-0.0224025
-0.0254084
-0.0281534
-0.0306188
-0.0327964
-0.0346871
-0.036299
-0.037645
-0.0387447
-0.0396402
-0.0403953
-0.0409103
-0.0405319
-0.038577
0.0204063
0.0213103
0.0204038
0.0184473
0.0162009
0.0137969
0.011193
0.00837801
0.0053711
0.00220276
-0.0010894
-0.00446048
-0.0078594
-0.0112314
-0.0145211
-0.0176759
-0.0206489
-0.0234013
-0.0259043
-0.0281395
-0.0300988
-0.0317834
-0.0332017
-0.034367
-0.0352984
-0.0360354
-0.0366396
-0.0370253
-0.036575
-0.0346068
0.0181863
0.0190509
0.0182709
0.0165517
0.0145665
0.0124259
0.0100886
0.00754522
0.00481314
0.00192018
-0.00109853
-0.00420022
-0.00733567
-0.0104516
-0.0134938
-0.0164104
-0.019155
-0.0216892
-0.0239847
-0.0260233
-0.0277973
-0.0293082
-0.0305648
-0.0315805
-0.032374
-0.0329821
-0.0334658
-0.0337515
-0.0332614
-0.0313132
0.0163788
0.0171733
0.0164825
0.014953
0.0131837
0.0112618
0.0091477
0.00683314
0.00433417
0.00167627
-0.00110761
-0.00397669
-0.00688354
-0.00977644
-0.0126024
-0.0153106
-0.0178555
-0.0201993
-0.0223142
-0.0241826
-0.0257972
-0.0271597
-0.0282794
-0.0291699
-0.0298494
-0.0303527
-0.0307387
-0.030946
-0.0304371
-0.0285282
0.0148624
0.0155726
0.0149521
0.0135795
0.0119902
0.0102536
0.00833053
0.006213
0.00391588
0.00146268
-0.00111567
-0.00378026
-0.00648541
-0.00918094
-0.0118153
-0.0143387
-0.0167065
-0.018882
-0.0208378
-0.0225571
-0.0240329
-0.0252674
-0.02627
-0.0270546
-0.0276388
-0.0280559
-0.0283624
-0.0285081
-0.0279949
-0.0261356
0.0135571
0.0141747
0.0136098
0.0123781
0.0109412
0.00936416
0.00760747
0.00566276
0.00354363
0.00127178
-0.00112369
-0.00360567
-0.00613017
-0.00864862
-0.0111108
-0.0134683
-0.0156774
-0.0177023
-0.0195165
-0.0211037
-0.0224574
-0.0235802
-0.0244818
-0.0251759
-0.0256802
-0.0260258
-0.0262669
-0.0263647
-0.0258563
-0.0240514
0.0124089
0.0129283
0.0124069
0.0113052
0.0100037
0.00856499
0.00695557
0.00516512
0.00320551
0.00109682
-0.0011335
-0.00345009
-0.00581063
-0.00816814
-0.0104739
-0.0126806
-0.0147458
-0.0166347
-0.0183214
-0.0197904
-0.0210357
-0.0220602
-0.0228736
-0.0234899
-0.0239263
-0.024212
-0.0243989
-0.0244591
-0.023962
-0.0222138
0.011375
0.0118002
0.011314
0.0103258
0.00915238
0.00783459
0.00635691
0.00470628
0.00289173
0.000931908
-0.00114728
-0.00331212
-0.005522
-0.00773151
-0.00989337
-0.0119617
-0.0138951
-0.0156597
-0.0172307
-0.0185929
-0.0197409
-0.0206779
-0.0214137
-0.0219624
-0.0223408
-0.0225762
-0.0227189
-0.0227491
-0.0222671
-0.0205761
0.0104246
0.0107603
0.0103067
0.009418
0.00836299
0.00715613
0.00579724
0.00427492
0.00259412
0.00077187
-0.00116728
-0.00319123
-0.00526105
-0.00733294
-0.00936109
-0.0113009
-0.0131124
-0.0147624
-0.016227
-0.0174918
-0.0185518
-0.0194103
-0.0200773
-0.0205666
-0.0208949
-0.0210881
-0.021194
-0.0212005
-0.0207368
-0.0191022
0.00953679
0.00978394
0.00936387
0.00856588
0.00761599
0.00651709
0.00526503
0.00386146
0.00230566
0.000612126
-0.00119576
-0.00308743
-0.00502562
-0.00696813
-0.00887068
-0.0106901
-0.0123874
-0.0139307
-0.0152968
-0.0164718
-0.0174513
-0.0182387
-0.0188439
-0.0192809
-0.019566
-0.0197234
-0.0197986
-0.0197866
-0.0193429
-0.0177642
0.00869099
0.00885684
0.00847152
0.00775382
0.00689755
0.00590545
0.00475222
0.00345856
0.00202046
0.000448635
-0.00123492
-0.00300108
-0.00481423
-0.00663383
-0.00841713
-0.0101224
-0.0117119
-0.0131547
-0.0144284
-0.01552
-0.0164251
-0.0171474
-0.0176969
-0.0180872
-0.0183347
-0.0184616
-0.0185117
-0.0184857
-0.0180638
-0.0165402
0.00786969
0.00796519
0.00761458
0.00697184
0.00620089
0.00530713
0.00425161
0.00305949
0.00173314
0.000277652
-0.00128694
-0.00293279
-0.00462593
-0.00632752
-0.00799642
-0.00959232
-0.0110788
-0.012426
-0.0136124
-0.0146254
-0.0154612
-0.0161234
-0.0166221
-0.0169707
-0.0171851
-0.0172865
-0.0173163
-0.0172801
-0.0168813
-0.0154135
0.00706256
0.00709551
0.00678047
0.00620927
0.00551671
0.00471156
0.00375626
0.00265867
0.00143888
9.56624e-05
-0.00135394
-0.00288334
-0.00446014
-0.00604725
-0.00760522
-0.00909524
-0.0104823
-0.0117375
-0.0128404
-0.0137787
-0.0145491
-0.0151554
-0.0156074
-0.0159185
-0.016104
-0.016184
-0.0161978
-0.0161552
-0.0157809
-0.014371
0.00626191
0.00623629
0.00595717
0.005455
0.0048364
0.00411331
0.0032575
0.00225174
0.00113345
-0.000100665
-0.0014381
-0.00285367
-0.00431655
-0.00579147
-0.00724071
-0.00862711
-0.009917
-0.0110828
-0.0121048
-0.0129715
-0.0136797
-0.0142334
-0.0146423
-0.0149195
-0.01508
-0.0151427
-0.0151447
-0.0150992
-0.0147511
-0.0134033
0.00546087
0.00537734
0.00513493
0.0046995
0.00415268
0.00350799
0.00274635
0.00183466
0.000812661
-0.0003147
-0.00154162
-0.0028449
-0.00419515
-0.00555895
-0.00690048
-0.0081843
-0.00937828
-0.0104561
-0.0113989
-0.012196
-0.0128445
-0.0133484
-0.0137173
-0.0139641
-0.0141033
-0.0141527
-0.0141472
-0.0141026
-0.0137825
-0.0125037
0.00465131
0.00451131
0.00430621
0.00393569
0.00345945
0.00288924
0.00221526
0.00140289
0.000472799
-0.000549747
-0.00166683
-0.00285831
-0.00409613
-0.00534877
-0.00658244
-0.00776356
-0.00886168
-0.00985188
-0.0107164
-0.0114451
-0.0120357
-0.0124923
-0.0128241
-0.0130438
-0.0131654
-0.0132056
-0.0131972
-0.0131576
-0.0128681
-0.0116684
0.00382499
0.00363079
0.00346376
0.00315671
0.00274961
0.00225189
0.00166079
0.000949838
0.000110934
-0.000808913
-0.00181618
-0.0028954
-0.00401995
-0.00516027
-0.00628472
-0.0073618
-0.00836297
-0.00926489
-0.010051
-0.0107121
-0.0112461
-0.0116574
-0.011955
-0.0121511
-0.0122591
-0.0122948
-0.0122882
-0.0122584
-0.0120028
-0.0108959
0.00297325
0.00272875
0.00260111
0.00235603
0.00201625
0.00159067
0.00108045
0.000468438
-0.000275986
-0.00109563
-0.00199245
-0.00295798
-0.00396738
-0.00499301
-0.00600561
-0.00697607
-0.007878
-0.00868989
-0.00939661
-0.00998995
-0.0104685
-0.0108365
-0.0111028
-0.0112792
-0.0113783
-0.0114149
-0.0114161
-0.0114011
-0.0111835
-0.0101866
0.00208582
0.00179797
0.00171099
0.00152783
0.00125468
0.000901279
0.000470203
-4.76075e-05
-0.000691456
-0.0014138
-0.00219887
-0.00304824
-0.00393949
-0.00484678
-0.00574355
-0.0066034
-0.00740247
-0.00812141
-0.00874686
-0.00927183
-0.00969555
-0.0100224
-0.0102609
-0.0104222
-0.010518
-0.0105617
-0.0105779
-0.0105839
-0.0104094
-0.00954282
0.00114842
0.000829865
0.000786707
0.00066608
0.000459605
0.000178682
-0.000175168
-0.000603283
-0.00113996
-0.00176607
-0.00243853
-0.00316859
-0.00393757
-0.00472162
-0.00549712
-0.00624086
-0.00693198
-0.00755388
-0.0080953
-0.00855081
-0.00892046
-0.00920873
-0.0094236
-0.00957533
-0.0096746
-0.00973279
-0.00977179
-0.00980586
-0.00968121
-0.00896799
0.000142347
-0.000187408
-0.000182185
-0.000238072
-0.000375479
-0.000583178
-0.000859673
-0.00120045
-0.00162836
-0.00215513
-0.00271444
-0.00332142
-0.00396305
-0.00461767
-0.00526501
-0.00588565
-0.00646245
-0.00698215
-0.00743619
-0.00782104
-0.00813772
-0.00839071
-0.00858714
-0.00873615
-0.00884687
-0.00892877
-0.00899963
-0.00907023
-0.00900292
-0.00846607
-0.00094964
-0.00125641
-0.00120021
-0.00119054
-0.00125554
-0.00138753
-0.00158556
-0.00183987
-0.00216174
-0.00258456
-0.00303077
-0.00351038
-0.00401857
-0.00453611
-0.00504652
-0.005535
-0.0059891
-0.00639984
-0.00676216
-0.00707505
-0.00734066
-0.00756237
-0.00774683
-0.00790168
-0.00803382
-0.00814997