/*--------------------------------*- C++ -*----------------------------------*\
  =========                 |
  \\      /  F ield         | OpenFOAM: The Open Source CFD Toolbox
   \\    /   O peration     | Website:  https://openfoam.org
    \\  /    A nd           | Version:  12
     \\/     M anipulation  |
\*---------------------------------------------------------------------------*/
FoamFile
{
    format      ascii;
    class       volScalarField;
    location    "140";
    object      pPrime2Mean;
}
// * * * * * * * * * * * * * * * * * * * * * * * * * * * * * * * * * * * * * //

dimensions      [0 4 -4 0 0 0 0];

internalField   nonuniform List<scalar> 
6750
(
0.00905039
0.00903647
0.00901839
0.00900238
0.00898804
0.00906198
0.00904333
0.00901397
0.00897905
0.00894276
0.00911295
0.00908979
0.00905157
0.00900247
0.0089498
0.00920179
0.00917707
0.00913588
0.00908208
0.00902445
0.00932369
0.00930109
0.00926328
0.00921331
0.00915982
0.00947044
0.00945317
0.00942399
0.00938455
0.00934215
0.0096316
0.00962209
0.00960545
0.0095815
0.00955546
0.00979615
0.00979597
0.00979442
0.00978921
0.0097832
0.00995384
0.00996366
0.00997831
0.00999337
0.0100093
0.010096
0.0101157
0.0101463
0.0101815
0.0102194
0.0102162
0.0102448
0.0102901
0.0103438
0.0104021
0.0103102
0.0103464
0.0104039
0.0104732
0.0105489
0.0103761
0.010418
0.0104848
0.010566
0.0106551
0.0104139
0.0104595
0.0105322
0.0106212
0.0107191
0.0104251
0.0104723
0.0105477
0.0106402
0.0107422
0.0104122
0.0104592
0.0105342
0.0106263
0.0107278
0.0103752
0.01042
0.0104916
0.0105793
0.0106758
0.0103118
0.0103524
0.0104173
0.0104964
0.0105831
0.0102209
0.0102554
0.0103103
0.0103767
0.0104492
0.0101028
0.0101295
0.0101716
0.0102217
0.0102761
0.00995999
0.00997741
0.0100046
0.0100357
0.0100692
0.00979686
0.00980429
0.00981528
0.00982606
0.00983721
0.00962022
0.00961762
0.00961235
0.00960281
0.00959199
0.00943896
0.00942707
0.00940679
0.00937861
0.00934787
0.00926349
0.00924393
0.00921125
0.00916778
0.0091209
0.00910494
0.00908017
0.00903905
0.00898528
0.00892763
0.0089738
0.00894705
0.00890277
0.0088454
0.00878397
0.00887834
0.00885327
0.00881215
0.0087597
0.00870354
0.00882336
0.00880298
0.00877097
0.00873291
0.0086934
0.00881017
0.00879484
0.0087746
0.00875614
0.00873964
0.00894568
0.00887252
0.00873267
0.0085375
0.00829044
0.00799383
0.0076487
0.00725618
0.00682001
0.00634585
0.00584001
0.00531445
0.00478078
0.00425215
0.00374169
0.00326108
0.00281962
0.00242359
0.00207583
0.00177586
0.00152081
0.00130927
0.00113412
0.000990362
0.000873364
0.000778742
0.000702879
0.000642542
0.000595359
0.000566017
0.00894869
0.00882841
0.00865286
0.00842854
0.00815712
0.00784019
0.00747993
0.00707972
0.00664453
0.00617995
0.0056918
0.00519163
0.00468862
0.00419343
0.00371633
0.00326638
0.0028508
0.00247453
0.00214021
0.00184848
0.00159833
0.00138441
0.00120563
0.0010571
0.000934679
0.00083478
0.000754062
0.0006892
0.000636756
0.00059705
0.00891518
0.00876005
0.00855676
0.00831113
0.00802294
0.00769381
0.0073262
0.00692403
0.00649291
0.00603789
0.00556605
0.0050876
0.00461023
0.00414274
0.00369329
0.00326889
0.0028751
0.00251588
0.00219345
0.00190843
0.00166005
0.00144666
0.0012654
0.00111302
0.000986137
0.000881476
0.000795934
0.000726298
0.000669806
0.000626523
0.00886388
0.00868605
0.0084626
0.00820168
0.00790347
0.00756858
0.00719921
0.00679943
0.00637478
0.00592953
0.00547216
0.00501096
0.00455293
0.0041057
0.00367616
0.00327017
0.00289238
0.00254611
0.00223335
0.00195474
0.00170983
0.00149748
0.00131542
0.00116096
0.00103119
0.000923024
0.000833265
0.000758881
0.000697797
0.0006539
0.00880692
0.00861286
0.00837404
0.00810144
0.0077968
0.00745963
0.00709182
0.00669703
0.00628016
0.00584506
0.00540059
0.00495346
0.00451036
0.0040782
0.00366321
0.0032707
0.00290488
0.0025688
0.00226424
0.00199184
0.00175122
0.0015412
0.00135988
0.00120488
0.00107349
0.000962767
0.000869529
0.000790575
0.000725508
0.000681241
0.00875318
0.00854656
0.00829628
0.00801482
0.0077055
0.00736809
0.00700346
0.00661479
0.00620589
0.00578056
0.00534709
0.00491121
0.00447937
0.00405814
0.00365349
0.00327059
0.00291356
0.00258536
0.00228767
0.00202103
0.00178495
0.00157811
0.00139864
0.00124416
0.00111207
0.000999563
0.000903443
0.000820731
0.000752352
0.00070813
0.00870839
0.00849184
0.00823257
0.00794466
0.00763202
0.00729519
0.00693441
0.00655195
0.00615034
0.00573378
0.00530924
0.00488194
0.00445817
0.00404437
0.00364658
0.00327008
0.00291914
0.00259677
0.00230462
0.00204308
0.00181145
0.00160818
0.00143115
0.0012779
0.00114578
0.00103213
0.000933847
0.000848198
0.000777162
0.000733347
0.00867723
0.00845263
0.00818607
0.00789299
0.00757842
0.00724226
0.00688524
0.00650831
0.00611284
0.00570351
0.00528565
0.00486428
0.00444563
0.00403618
0.00364221
0.00326934
0.00292211
0.00260368
0.00231573
0.00205849
0.00183097
0.00163131
0.00145705
0.0013055
0.00117397
0.00105964
0.000959851
0.000872131
0.000799031
0.000755741
0.00866398
0.00843252
0.00815949
0.00786181
0.00754576
0.00721034
0.00685642
0.00648386
0.0060932
0.00568909
0.00527548
0.00485738
0.00444102
0.00403307
0.0036402
0.00326845
0.00292276
0.00260651
0.00232141
0.00206755
0.00184364
0.00164742
0.00147606
0.00132656
0.00119614
0.00108184
0.000981231
0.000891941
0.000817218
0.000774352
0.00867284
0.00843509
0.00815565
0.0078533
0.00753553
0.00720078
0.00684881
0.00647897
0.00609151
0.00569025
0.00527835
0.00486081
0.00444394
0.00403476
0.0036404
0.00326745
0.00292125
0.00260548
0.00232188
0.0020704
0.00184946
0.00165639
0.00148793
0.00134079
0.00121184
0.00109826
0.000997421
0.000906992
0.000830974
0.000788317
0.0087081
0.00846403
0.00817759
0.00786971
0.00754931
0.00721449
0.00686331
0.00649436
0.00610813
0.00570717
0.00529429
0.00487448
0.00445426
0.00404111
0.00364274
0.00326632
0.00291766
0.00260067
0.00231721
0.00206707
0.00184837
0.00165805
0.00149245
0.00134786
0.00122086
0.00110852
0.00100787
0.000916665
0.000839618
0.000796896
0.00877454
0.0085234
0.00822875
0.00791386
0.0075895
0.00725323
0.00690112
0.00653113
0.0061438
0.00574038
0.00532362
0.00489857
0.00447208
0.00405217
0.00364724
0.00326508
0.00291196
0.00259208
0.00230736
0.00205747
0.00184026
0.00165227
0.00148942
0.00134757
0.00122284
0.00111218
0.00101201
0.000920338
0.000842551
0.000799505
0.00887767
0.00861805
0.00831345
0.00798956
0.00765958
0.00731938
0.00696409
0.00659091
0.00619969
0.00579081
0.00536702
0.00493354
0.00449765
0.00406807
0.00365395
0.0032637
0.00290409
0.00257959
0.00229221
0.00204149
0.00182499
0.00163889
0.00147864
0.0013396
0.00121738
0.00110848
0.00100922
0.000917462
0.0008393
0.000795736
0.00902418
0.00875382
0.00843695
0.00810132
0.00776297
0.00741621
0.00705505
0.0066759
0.00627756
0.00585982
0.00542549
0.00498007
0.00453143
0.00408908
0.00366296
0.00326218
0.00289395
0.00256305
0.00227156
0.00201894
0.00180241
0.00161775
0.00145991
0.00132364
0.0012041
0.00109716
0.000999099
0.000907682
0.00082962
0.000785439
0.00922212
0.00893812
0.00860596
0.00825512
0.0079051
0.00754835
0.00717777
0.0067892
0.00637985
0.0059493
0.00550039
0.00503909
0.004574
0.00411553
0.00367444
0.0032605
0.00288141
0.00254224
0.00224519
0.00198958
0.00177231
0.00158865
0.00143298
0.00129945
0.00118263
0.00107787
0.000981398
0.000890888
0.000813565
0.000768853
0.00948172
0.00918053
0.00882947
0.00845921
0.00809335
0.00772215
0.00733783
0.00693517
0.00650994
0.00606169
0.00559345
0.00511174
0.0046261
0.00414784
0.00368855
0.00325864
0.00286633
0.00251699
0.00221287
0.00195314
0.00173438
0.00155123
0.00139745
0.00126664
0.00115265
0.00105041
0.000956116
0.000867302
0.000791622
0.00074681
0.00981634
0.00949379
0.00911967
0.00872471
0.00833761
0.00794633
0.00754275
0.00711956
0.00667219
0.00620014
0.0057068
0.00519946
0.00468861
0.00418649
0.00370544
0.00325655
0.00284855
0.00248709
0.00217439
0.0019094
0.00168827
0.00150508
0.00135291
0.00122474
0.00111395
0.00101486
0.000923639
0.000837706
0.000765017
0.000721059
0.0102441
0.00989515
0.0094929
0.0090662
0.0086508
0.00823231
0.00780144
0.00734958
0.00687207
0.00636858
0.00584314
0.00530399
0.00476257
0.00423194
0.00372521
0.00325413
0.00282788
0.00245229
0.00212949
0.00185807
0.00163368
0.00144989
0.00129913
0.00117373
0.00106662
0.000971755
0.000885038
0.000803828
0.000736213
0.000694861
0.0107896
0.0104078
0.00997064
0.00950285
0.00904985
0.0085943
0.00812533
0.00763419
0.00711632
0.00657186
0.00600578
0.00542738
0.00484902
0.0042846
0.00374793
0.00325129
0.00280416
0.0024124
0.00207788
0.00179882
0.00157039
0.00138559
0.00123628
0.00111413
0.00101165
0.000922598
0.00084271
0.000769153
0.000709785
0.000673913
0.0114874
0.0110632
0.0105817
0.0100599
0.0095564
0.00904974
0.00852877
0.00798448
0.00741314
0.00681577
0.00619853
0.00557184
0.00494906
0.00434487
0.00377364
0.00324794
0.00277726
0.00236722
0.00201938
0.00173153
0.00149842
0.00131256
0.00116526
0.00104763
0.000951715
0.000871062
0.000801587
0.000740369
0.000694099
0.000668175
0.0123854
0.0119054
0.0113659
0.010772
0.0101988
0.00962194
0.0090299
0.00841434
0.00777259
0.00710712
0.0064256
0.00573975
0.00506387
0.00441321
0.00380242
0.00324397
0.002747
0.00231665
0.00195398
0.0016564
0.00141831
0.0012319
0.00108805
0.000977411
0.000891584
0.000824033
0.000770788
0.000729631
0.000704116
0.000695303
0.013551
0.0129945
0.0123781
0.0116855
0.0110157
0.0103419
0.0096527
0.0089413
0.00820683
0.00745387
0.00669187
0.00593383
0.00519477
0.00449015
0.00383435
0.00323925
0.00271321
0.00226061
0.0018819
0.0015741
0.00133139
0.00114589
0.00100835
0.0009092
0.000839768
0.000793548
0.000766828
0.000758376
0.000765943
0.000786401
0.0150753
0.0144128
0.0136932
0.0128635
0.0120591
0.0112508
0.0104277
0.00958696
0.00873052
0.00786543
0.00700301
0.00615724
0.00534333
0.00457626
0.00386944
0.00323354
0.00267567
0.00219916
0.00180371
0.00148595
0.00124012
0.0010586
0.000932565
0.000852778
0.000810708
0.000800052
0.000817343
0.000862914
0.000922886
0.000992902
0.0170731
0.0162672
0.0154076
0.0143886
0.0133966
0.0124001
0.0113927
0.0103778
0.00936124
0.00835291
0.00736562
0.00641356
0.00551116
0.00467196
0.00390749
0.00322641
0.00263408
0.00213244
0.00172035
0.00139421
0.00114858
0.000976756
0.000871259
0.000824231
0.000828202
0.000877206
0.00096783
0.00110132
0.00124214
0.00139089
0.0196781
0.0186821
0.0176396
0.0163639
0.0151116
0.0138519
0.0125925
0.0113446
0.0101192
0.00892884
0.00778687
0.00670634
0.00569956
0.00477722
0.00394776
0.00321692
0.00258764
0.00206023
0.00163275
0.00130167
0.0010625
0.000910402
0.000840617
0.000848358
0.000928713
0.00107649
0.00128618
0.001557
0.00181643
0.00207894
0.0230282
0.0217852
0.0205058
0.0188876
0.0172784
0.0156628
0.0140676
0.0125154
0.0110231
0.00960515
0.00827374
0.00703912
0.00590965
0.00489153
0.00398865
0.00320277
0.00253378
0.00198022
0.00153971
0.00120951
0.000987214
0.000871376
0.000861768
0.000958764
0.00116168
0.00146589
0.00186028
0.00233381
0.00275701
0.00317348
0.0271976
0.0256342
0.0240369
0.0219797
0.0199152
0.0178539
0.0158425
0.0139174
0.0121008
0.0104077
0.00884825
0.00742878
0.00615251
0.00502008
0.00403001
0.00317949
0.00246522
0.00188417
0.00143421
0.00111459
0.000926485
0.000873429
0.000961145
0.0011961
0.00158205
0.00211364
0.00277032
0.00352181
0.00417332
0.00479317
0.0324754
0.030376
0.0282608
0.0256883
0.0231208
0.0205741
0.0181032
0.0157521
0.0135491
0.0115138
0.00965857
0.00798933
0.00650704
0.00520882
0.00408944
0.00314289
0.00236383
0.00174875
0.00129671
0.00100956
0.000891874
0.000950329
0.00119246
0.00162431
0.00224686
0.00305063
0.00401017
0.00509182
0.00610689
0.00708955
0.0406673
0.0379595
0.0352213
0.0320472
0.0288467
0.0256156
0.0224289
0.0193587
0.0164615
0.0137813
0.0113475
0.00917512
0.00726851
0.0056243
0.00423543
0.00309447
0.00219623
0.00153914
0.00112614
0.000963542
0.00105826
0.0014147
0.00203105
0.00289444
0.00397849
0.00523963
0.00662222
0.00809218
0.00938297
0.0106717
0.0661906
0.0613342
0.0558165
0.0502049
0.0446076
0.0390241
0.0335789
0.0283914
0.0235594
0.0191592
0.0152399
0.0118227
0.00890825
0.00648437
0.00453515
0.00304826
0.00202031
0.00145955
0.00138377
0.00181609
0.0027783
0.00428147
0.00631639
0.00884788
0.0118127
0.0151198
0.0186559
0.0223917
0.0262277
0.0296999
0.00896151
0.00891596
0.00887524
0.00883748
0.00880462
0.00877887
0.00876344
0.00876188
0.00877797
0.00881579
0.00887977
0.00897497
0.00910729
0.00928387
0.00951342
0.0098069
0.0101785
0.0106476
0.011241
0.0119966
0.012968
0.0142308
0.0158872
0.0180628
0.0209012
0.0245585
0.0292027
0.0353366
0.0446217
0.0716221
0.00890984
0.00887703
0.0088492
0.00882701
0.00881449
0.00881331
0.00882566
0.00885424
0.00890226
0.00897356
0.00907264
0.0092049
0.00937683
0.0095963
0.00987309
0.0102196
0.0106519
0.0111919
0.0118698
0.0127273
0.0138233
0.0152395
0.017085
0.0194926
0.0226124
0.0266258
0.0318256
0.0388163
0.0489058
0.0774571
0.00892029
0.00891464
0.00891315
0.00891632
0.00892856
0.00895244
0.00899086
0.00904703
0.00912451
0.00922742
0.00936053
0.00952959
0.00974151
0.0100048
0.0103302
0.0107312
0.0112259
0.0118385
0.0126022
0.0135625
0.0147828
0.0163503
0.0183804
0.0210108
0.0243951
0.028739
0.0344477
0.0422213
0.0528777
0.0839305
0.00900502
0.00902697
0.00905266
0.00908256
0.00912171
0.00917319
0.00924029
0.00932654
0.00943589
0.00957281
0.0097425
0.00995114
0.0102062
0.0105168
0.0108944
0.011354
0.0119149
0.0126034
0.0134546
0.0145162
0.0158538
0.0175566
0.0197406
0.0225396
0.0260999
0.0306473
0.0367379
0.0453131
0.0563622
0.0908828
0.00915342
0.00920039
0.00925218
0.00930869
0.00937532
0.00945568
0.00955343
0.00967234
0.00981662
0.00999106
0.0102012
0.0104538
0.0107568
0.0111199
0.0115557
0.01208
0.0127139
0.0134849
0.0144297
0.0155972
0.0170536
0.0188876
0.0212117
0.0241505
0.0278353
0.0325099
0.0389143
0.0483682
0.059519
0.0982356
0.00935069
0.0094197
0.00949571
0.00957814
0.00967227
0.00978205
0.00991147
0.0100646
0.0102459
0.0104604
0.0107141
0.011014
0.0113685
0.0117881
0.0122861
0.0128792
0.0135897
0.0144462
0.0154861
0.0167584
0.0183281
0.0202811
0.0227232
0.0257645
0.0295167
0.0342412
0.0409064
0.051423
0.0623681
0.106263
0.00958033
0.00966849
0.00976653
0.00987367
0.00999478
0.0101339
0.0102952
0.0104831
0.0107023
0.0109581
0.0112567
0.0116055
0.0120134
0.0124912
0.0130529
0.0137161
0.0145036
0.0154448
0.0165769
0.017948
0.019621
0.0216769
0.0242126
0.0273198
0.0310862
0.0357893
0.042669
0.0545413
0.0649882
0.115351
0.00982525
0.00992991
0.0100476
0.0101778
0.0103247
0.0104923
0.0106849
0.010907
0.0111637
0.0114603
0.0118035
0.0122008
0.0126613
0.0131965
0.0138206
0.0145518
0.0154134
0.0164344
0.0176518
0.0191121
0.0208752
0.0230169
0.0256237
0.0287659
0.0325022
0.0371227
0.0441664
0.0577837
0.0674873
0.125913
0.0100687
0.0101875
0.0103225
0.0104735
0.0106443
0.0108387
0.011061
0.0113157
0.0116079
0.0119434
0.0123289
0.0127721
0.0132824
0.0138714
0.0145538
0.0153479
0.0162769
0.0173697
0.0186623
0.0201997
0.0220385
0.0242496
0.0269092
0.0300637
0.0337373
0.0382274
0.0453722
0.0611927
0.0699968
0.138283
0.0102955
0.0104262
0.0105761
0.0107455
0.0109377
0.0111564
0.0114057
0.0116901
0.0120149
0.0123857
0.0128094
0.013294
0.013849
0.0144861
0.0152202
0.0160694
0.0170569
0.0182109
0.0195667
0.0211675
0.0230675
0.0253334
0.0280323
0.0311853
0.034776
0.0391052
0.0462772
0.0647764
0.0726525
0.152551
0.0104932
0.0106338
0.0107961
0.0109811
0.0111918
0.0114315
0.0117042
0.0120144
0.0123673
0.0127686
0.0132252
0.0137451
0.0143381
0.0150158
0.0157931
0.016688
0.0177232
0.0189267
0.0203327
0.0219833
0.0239306
0.0262387
0.0289679
0.0321129
0.0356121
0.0397701
0.0468932
0.0684886
0.0755511
0.16837
0.0106528
0.0108011
0.0109734
0.011171
0.0113966
0.0116535
0.0119454
0.0122766
0.0126522
0.0130781
0.0135612
0.0141094
0.0147326
0.0154425
0.0162536
0.0171839
0.0182557
0.0194967
0.0209403
0.0226275
0.0246093
0.0269487
0.0297014
0.0328376
0.0362467
0.0402423
0.0472539
0.0722042
0.0786906
0.184764
0.0107687
0.0109228
0.0111024
0.0113095
0.0115464
0.0118161
0.0121222
0.0124691
0.0128616
0.0133058
0.0138084
0.0143775
0.0150228
0.0157559
0.0165913
0.0175467
0.0186444
0.0199115
0.021381
0.023093
0.0250979
0.0274588
0.0302294
0.0333583
0.0366869
0.0405444
0.0474091
0.0757115
0.081919
0.200174
0.0108391
0.0109969
0.0111814
0.0113946
0.0116389
0.0119169
0.0122323
0.0125893
0.0129928
0.0134488
0.013964
0.0145465
0.0152057
0.0159535
0.016804
0.0177751
0.0188887
0.0201717
0.0216568
0.0233834
0.0254018
0.0277757
0.0305587
0.0336829
0.0369476
0.0407023
0.0474167
0.0786569
0.0848554
0.212672
0.0108652
0.0110248
0.0112116
0.0114279
0.0116757
0.0119577
0.0122775
0.0126392
0.0130479
0.0135094
0.0140305
0.0146192
0.0152849
0.0160393
0.0168968
0.0178751
0.0189961
0.0202865
0.0217788
0.0235122
0.0255368
0.027917
0.0307072
0.0338304
0.0370605
0.0407606
0.0473604
0.0803496
0.0867083
0.219793
0.0108506
0.0110102
0.0111971
0.0114134
0.0116612
0.0119431
0.0122628
0.0126244
0.0130329
0.0134943
0.0140151
0.0146033
0.0152686
0.0160226
0.0168798
0.017858
0.018979
0.0202697
0.0217623
0.0234963
0.0255218
0.0279033
0.0306952
0.03382
0.0370513
0.0407531
0.047344
0.0803188
0.0866862
0.220066
0.0107951
0.0109531
0.0111378
0.0113513
0.0115955
0.0118735
0.0121886
0.0125452
0.0129483
0.0134036
0.013918
0.0144994
0.0151575
0.0159042
0.0167539
0.0177246
0.0188383
0.0201221
0.0216083
0.0233369
0.025358
0.0277358
0.0305237
0.0336525
0.036921
0.0406805
0.0473704
0.0785751
0.0847976
0.213454
0.0106956
0.01085
0.0110302
0.0112377
0.0114748
0.0117446
0.0120505
0.0123969
0.0127889
0.0132321
0.0137335
0.0143011
0.0149447
0.0156762
0.0165103
0.0174653
0.0185633
0.0198316
0.0213033
0.0230186
0.0250283
0.0273956
0.0301739
0.03331
0.036645
0.0405103
0.0473429
0.0756064
0.0818464
0.201364
0.0105515
0.0107004
0.0108735
0.0110719
0.0112982
0.0115555
0.0118474
0.0121784
0.0125534
0.0129782
0.0134598
0.0140063
0.0146274
0.0153354
0.0161451
0.0170749
0.0181473
0.0193901
0.020837
0.022529
0.0245174
0.0268653
0.0296278
0.0327732
0.0361921
0.0401992
0.0471821
0.0721079
0.0786255
0.186249
0.0103654
0.0105068
0.0106702
0.0108565
0.0110684
0.011309
0.0115822
0.0118925
0.0122449
0.0126453
0.0131004
0.0136184
0.0142092
0.014885
0.0156609
0.0165553
0.0175914
0.0187973
0.0202075
0.0218642
0.0238196
0.0261377
0.0288776
0.0320335
0.0355467
0.0397223
0.0468322
0.0684291
0.0755117
0.170049
0.0101433
0.0102752
0.0104266
0.0105977
0.0107917
0.0110119
0.0112622
0.0115473
0.011872
0.0122422
0.0126647
0.0131474
0.0137004
0.0143357
0.0150684
0.0159174
0.0169059
0.0180628
0.0194234
0.0210312
0.0229401
0.0252164
0.0279263
0.0310915
0.0347015
0.039058
0.0462428
0.0647738
0.0726536
0.154335
0.00989479
0.0100152
0.0101521
0.0103055
0.0104786
0.0106751
0.0108991
0.011155
0.0114479
0.0117833
0.0121679
0.0126097
0.0131183
0.0137057
0.014387
0.015181
0.0161113
0.0172071
0.0185048
0.0200492
0.0218969
0.0241178
0.0267879
0.0299564
0.033656
0.0381868
0.0453775
0.0612568
0.0700505
0.140104
0.00963251
0.00973942
0.00985972
0.00999284
0.0101427
0.010313
0.010508
0.0107321
0.0109901
0.0112874
0.0116305
0.0120269
0.0124863
0.0130201
0.0136433
0.0143744
0.0152372
0.0162612
0.0174833
0.0189502
0.0207211
0.0228713
0.0254878
0.0286462
0.0324167
0.0370951
0.0442193
0.0579159
0.0676044
0.127728
0.00937171
0.00946293
0.00956436
0.00967522
0.00979994
0.00994247
0.0101069
0.0102975
0.0105189
0.0107762
0.0110755
0.0114243
0.0118314
0.0123081
0.0128688
0.0135318
0.0143204
0.0152641
0.0164002
0.0177767
0.0194558
0.0215184
0.0240632
0.0271896
0.0309998
0.03578
0.0427721
0.054737
0.0651794
0.117138
0.00912904
0.00920209
0.00928238
0.0093693
0.00946774
0.00958159
0.00971477
0.00987129
0.0100555
0.0102724
0.0105277
0.0108281
0.0111824
0.011601
0.0120978
0.0126904
0.0134015
0.0142599
0.0153029
0.016579
0.0181531
0.0201111
0.0225622
0.0256265
0.029433
0.0342541
0.0410576
0.051676
0.0626452
0.108024
0.00892152
0.00897353
0.00903047
0.00909215
0.00916363
0.00924853
0.00935049
0.00947327
0.00962099
0.00979829
0.0100105
0.0102642
0.010567
0.0109292
0.0113637
0.011887
0.012521
0.0132933
0.0142402
0.0154104
0.0168696
0.0187078
0.0210419
0.0240084
0.027758
0.0325468
0.0391088
0.0486735
0.0598946
0.0999892
0.00876552
0.00879346
0.00882501
0.00886047
0.00890465
0.00896072
0.00903201
0.00912208
0.0092348
0.00937452
0.00954623
0.00975588
0.0100108
0.0103203
0.0106965
0.0111549
0.0117156
0.0124051
0.0132579
0.0143214
0.0156615
0.0173691
0.0195656
0.0223983
0.026033
0.0307089
0.0369701
0.0456679
0.056849
0.0926591
0.00867564
0.00867687
0.00868169
0.00869034
0.00870719
0.00873499
0.00877683
0.00883596
0.00891594
0.00902078
0.00915514
0.00932462
0.00953608
0.00979818
0.010122
0.010522
0.0110167
0.0116304
0.0123959
0.0133586
0.0145826
0.0161577
0.0182053
0.0208767
0.0243443
0.0288262
0.0347132
0.042626
0.053487
0.0857622
0.00866247
0.00863726
0.0086156
0.0085981
0.00858892
0.00859015
0.00860423
0.00863398
0.00868269
0.0087542
0.00885302
0.00898457
0.00915541
0.0093736
0.00964929
0.0099953
0.0104282
0.0109702
0.011651
0.012513
0.0136161
0.0150447
0.0169143
0.0193702
0.0225783
0.0267307
0.032108
0.0392551
0.0496113
0.079336
0.00871625
0.00867744
0.0086407
0.00860535
0.00857368
0.00854811
0.008532
0.00852906
0.00854329
0.00857895
0.00864062
0.00873353
0.00886383
0.00903893
0.00926783
0.00956165
0.00993478
0.0104068
0.0110051
0.0117683
0.0127511
0.0140319
0.0157183
0.0179477
0.020875
0.0246657
0.0294823
0.0357906
0.0453882
0.0735358
0.0680823
0.0631417
0.057462
0.0516432
0.0458309
0.0400432
0.0344124
0.029063
0.0240948
0.019584
0.0155781
0.0120963
0.00913638
0.00668353
0.00471956
0.00323039
0.00221131
0.00166996
0.00162367
0.00209497
0.00310482
0.0046625
0.00675564
0.0093443
0.012359
0.0157016
0.0192524
0.0229788
0.0267782
0.0302084
0.0414684
0.0387813
0.0360109
0.0327491
0.0294452
0.0261138
0.0228371
0.0196917
0.0167348
0.0140095
0.0115429
0.00934797
0.0074267
0.00577394
0.00438113
0.00323958
0.00234304
0.00168873
0.00127857
0.00111801
0.00121317
0.0015678
0.00217953
0.00303496
0.00410723
0.00535191
0.00671374
0.00816082
0.00941441
0.0106849
0.0329504
0.030886
0.0287754
0.026168
0.0235462
0.0209404
0.018413
0.0160126
0.0137695
0.0117034
0.00982553
0.00814054
0.00664776
0.00534289
0.00421941
0.00327008
0.00248824
0.00186889
0.00140949
0.00111036
0.000974773
0.00100876
0.00122
0.00161552
0.00219816
0.00296084
0.00388163
0.00493152
0.00591718
0.00689157
0.0274797
0.0259361
0.0243416
0.0222632
0.0201691
0.0180782
0.01604
0.0140924
0.0122579
0.0105514
0.00898247
0.00755663
0.00627641
0.00514177
0.00415053
0.00329907
0.00258305
0.00199811
0.00154058
0.00120828
0.00100151
0.000923932
0.000982715
0.00118675
0.0015425
0.00204678
0.00268033
0.00341389
0.00405613
0.00467632
0.0231369
0.0219018
0.0206194
0.0189903
0.0173731
0.0157546
0.0141599
0.0126101
0.0111206
0.0097053
0.00837617
0.00714351
0.0060158
0.00499925
0.00409764
0.0033123
0.0026424
0.00208539
0.00163765
0.00129537
0.00105577
0.000918177
0.000884482
0.000958085
0.00114121
0.00143097
0.00181607
0.00228361
0.00270567
0.00312185
0.0196567
0.0186634
0.0176172
0.0163396
0.0150934
0.0138481
0.0126069
0.0113778
0.0101693
0.00899296
0.00786175
0.00678919
0.00578817
0.00486991
0.00404307
0.00331325
0.0026829
0.00215155
0.00171648
0.00137366
0.00111877
0.000948136
0.000859046
0.000849242
0.000915983
0.00105521
0.0012611
0.00153094
0.00179208
0.00205508
0.0169639
0.0161611
0.0153009
0.0142873
0.013309
0.0123344
0.0113533
0.0103654
0.0093737
0.00838637
0.00741561
0.0064759
0.00558236
0.00474922
0.00398842
0.00330865
0.00271496
0.0022089
0.00178904
0.00145187
0.0011926
0.00100579
0.00088563
0.000825907
0.000820358
0.000863571
0.000951968
0.001086
0.0012303
0.0013827
0.0149106
0.0142536
0.0135373
0.0127173
0.0119297
0.0111456
0.010351
0.00954019
0.00871221
0.00787202
0.00702992
0.00619977
0.00539733
0.00463822
0.00393629
0.0033023
0.00274325
0.00226238
0.00185955
0.00153197
0.00127481
0.00108168
0.000945
0.000856426
0.000807881
0.000793126
0.000808569
0.000854392
0.000917561
0.000992074
0.0133528
0.0128028
0.0121922
0.0115111
0.0108589
0.0102093
0.00954836
0.00886726
0.0081625
0.00743647
0.00669723
0.00595731
0.00523199
0.00453725
0.00388781
0.00329568
0.0027692
0.00231291
0.00192775
0.00161162
0.00135983
0.00116562
0.00102065
0.000915765
0.000842274
0.000793346
0.000765019
0.000755995
0.000765045
0.000788425
0.0121654
0.0116916
0.0111591
0.010578
0.010022
0.00946824
0.00890342
0.00831751
0.00770559
0.00706803
0.0064109
0.00574512
0.00508497
0.00444606
0.00384327
0.00328917
0.00279294
0.00236002
0.00199218
0.00168788
0.00144274
0.00125
0.00110123
0.000987223
0.00089926
0.000830235
0.000775709
0.000733186
0.000707254
0.000699103
0.0112525
0.0108335
0.0103591
0.00984991
0.00936333
0.00887867
0.00838367
0.00786803
0.00732614
0.00675705
0.00616526
0.00556019
0.0049549
0.0043642
0.00380263
0.0032828
0.00281426
0.00240303
0.00205146
0.00175851
0.00152015
0.00132992
0.00117968
0.0010605
0.00096396
0.000882842
0.000812362
0.000749272
0.000701096
0.00067391
0.0105438
0.0101658
0.00973557
0.00927992
0.00884345
0.00840872
0.0079646
0.00750099
0.00701185
0.00649553
0.00595546
0.00539983
0.00484049
0.00429119
0.00376574
0.00327645
0.00283289
0.00244137
0.00210462
0.00182203
0.00158999
0.00140248
0.00125181
0.00112955
0.00102761
0.000938899
0.000858231
0.000782521
0.000720259
0.00068175
0.0099904
0.00964354
0.00924755
0.00883237
0.00843279
0.00803477
0.00762773
0.00720238
0.00675264
0.00627668
0.00577729
0.00526172
0.00474062
0.00422658
0.00373247
0.00327004
0.00284867
0.0024747
0.00215112
0.00187769
0.0016512
0.00146613
0.00131533
0.00119092
0.0010852
0.000991175
0.000903974
0.000820572
0.000749571
0.000704763
0.00955745
0.00923495
0.00886629
0.00848238
0.0081106
0.0077391
0.00735873
0.00696094
0.00654013
0.00609471
0.00562713
0.00514383
0.00465431
0.00416998
0.00370271
0.00326356
0.00286156
0.00250294
0.00219084
0.00192526
0.00170341
0.00152022
0.00136907
0.00124269
0.00113381
0.00103597
0.000944575
0.000856661
0.000780581
0.000732879
0.00921977
0.00891702
0.00857079
0.00821117
0.00786011
0.00750773
0.0071458
0.0067673
0.00636733
0.00594474
0.00550185
0.00504433
0.00458063
0.004121
0.00367639
0.00325709
0.00287171
0.00252628
0.00222395
0.00196493
0.00174674
0.00156471
0.00141278
0.00128428
0.00117251
0.00107176
0.000977632
0.000887313
0.00080873
0.000760424
0.00895903
0.00867259
0.00834482
0.00800408
0.00766814
0.00732903
0.00697929
0.00661369
0.00622845
0.00582274
0.00539878
0.00496159
0.00451865
0.00407925
0.00365342
0.00325077
0.00287938
0.00254505
0.00225085
0.0019971
0.00178156
0.00159997
0.00144675
0.00131585
0.00120138
0.00109827
0.00100234
0.000911019
0.00083166
0.000784186
0.00876165
0.0084885
0.00817559
0.0078493
0.00752397
0.00719338
0.00685147
0.00649401
0.00611885
0.00572536
0.00531559
0.00489405
0.00446747
0.00404429
0.00363375
0.00324476
0.0028849
0.00255966
0.00227199
0.00202224
0.00180838
0.00162651
0.00147157
0.00133814
0.00122107
0.00111595
0.00101886
0.000927392
0.000848303
0.000802313
0.00861701
0.00835448
0.00805319
0.00773755
0.00741928
0.00709378
0.00675643
0.00640373
0.00603498
0.00564986
0.00525025
0.00484031
0.00442622
0.00401571
0.00361728
0.0032392
0.00288857
0.00257052
0.00228783
0.00204085
0.00182773
0.00164495
0.00148798
0.00135201
0.00123243
0.00112557
0.00102768
0.000936551
0.000858274
0.000813806
0.00851657
0.0082623
0.00797007
0.00766202
0.00734805
0.00702513
0.0066899
0.00633952
0.00597409
0.00559401
0.00520103
0.00479915
0.00439412
0.00399309
0.0036039
0.00323423
0.00289065
0.00257795
0.00229875
0.00205336
0.0018401
0.00165584
0.00149657
0.00135802
0.00123618
0.0011278
0.00102931
0.000938773
0.000861555
0.000818318
0.00845325
0.00820547
0.00792038
0.00761785
0.00730618
0.00698397
0.00664884
0.00629887
0.00593408
0.00555606
0.0051666
0.00476957
0.0043705
0.00397606
0.0035935
0.00322989
0.00289132
0.00258223
0.00230504
0.00206008
0.00184586
0.0016596
0.00149781
0.00135674
0.0012328
0.00112292
0.0010242
0.000934443
0.000858398
0.000815989
0.00842126
0.00817892
0.00789966
0.00760137
0.0072909
0.00696797
0.00663131
0.00627989
0.00591343
0.00553474
0.00514592
0.00475084
0.0043549
0.00396437
0.00358596
0.0032262
0.00289068
0.0025835
0.0023069
0.00206124
0.00184524
0.00165651
0.001492
0.00134844
0.00122266
0.00111169
0.00101293
0.000924089
0.000849294
0.000807255
0.0084156
0.00817855
0.00790453
0.00760978
0.00730009
0.00697544
0.00663589
0.00628119
0.00591108
0.00552917
0.00513833
0.0047425
0.00434701
0.00395783
0.00358121
0.00322314
0.00288875
0.00258181
0.0023044
0.00205693
0.00183839
0.00164673
0.00147935
0.00133338
0.00120608
0.0010944
0.000995922
0.000908283
0.000834869
0.000792804
0.00843173
0.00820061
0.00793192
0.00764065
0.00733171
0.0070052
0.00666154
0.00630181
0.00592634
0.00553883
0.00514352
0.00474439
0.00434676
0.00395642
0.00357921
0.00322066
0.00288546
0.00257709
0.0022975
0.00204717
0.00182534
0.00163036
0.00146003
0.00131184
0.00118321
0.0010714
0.000973754
0.000887618
0.00081585
0.000773442
0.00846519
0.00824143
0.00797906
0.00769191
0.00738405
0.00705563
0.00670727
0.0063411
0.00595883
0.00556366
0.00516158
0.00475669
0.00435435
0.00396028
0.00358
0.00321867
0.00288064
0.00256913
0.00228601
0.00203183
0.0018061
0.00160752
0.00143425
0.00128407
0.00115452
0.00104312
0.000946747
0.000862756
0.000793026
0.0007501
0.00851144
0.00829722
0.00804318
0.00776156
0.00745586
0.00712556
0.00677223
0.00639876
0.00600839
0.00560402
0.00519301
0.00477998
0.00437031
0.00396974
0.00358368
0.00321705
0.00287398
0.00255754
0.00226954
0.00201064
0.00178056
0.0015783
0.00140229
0.0012505
0.00112057
0.00100993
0.000915561
0.000834388
0.00076719
0.000723857
0.00856562
0.00836394
0.00812103
0.0078475
0.00754486
0.00721355
0.00685555
0.0064746
0.00607531
0.00566072
0.00523888
0.00481536
0.00439555
0.0039854
0.00359045
0.00321562
0.002865
0.00254167
0.00224748
0.00198313
0.0017485
0.00154282
0.00136456
0.00121175
0.00108202
0.000972743
0.000880918
0.000803321
0.000739308
0.000695946
0.00862202
0.00843709
0.00820914
0.00794621
0.00764876
0.00731796
0.00695654
0.00656892
0.00616071
0.00573556
0.00530122
0.00486478
0.00443167
0.00400829
0.00360068
0.00321411
0.00285299
0.00252058
0.00221886
0.00194857
0.00170955
0.00150117
0.00132163
0.00116873
0.00104001
0.000932746
0.000843871
0.000770459
0.000710646
0.000667707
0.00867229
0.00851092
0.00830292