/*--------------------------------*- C++ -*----------------------------------*\
  =========                 |
  \\      /  F ield         | OpenFOAM: The Open Source CFD Toolbox
   \\    /   O peration     | Website:  https://openfoam.org
    \\  /    A nd           | Version:  12
     \\/     M anipulation  |
\*---------------------------------------------------------------------------*/
FoamFile
{
    format      ascii;
    class       volVectorField;
    location    "140";
    object      U;
}
// * * * * * * * * * * * * * * * * * * * * * * * * * * * * * * * * * * * * * //

dimensions      [0 1 -1 0 0 0 0];

internalField   nonuniform List<vector> 
6750
(
(0.200065 -0.0031213 0)
(0.200334 -0.0095919 0)
(0.2006 -0.0155882 0)
(0.200831 -0.0211671 0)
(0.200688 -0.0264111 0)
(0.200037 -0.00347864 0)
(0.200271 -0.0101475 0)
(0.200458 -0.0160582 0)
(0.200516 -0.0213358 0)
(0.200372 -0.0260528 0)
(0.200026 -0.00363771 0)
(0.200122 -0.0103593 0)
(0.200123 -0.0161265 0)
(0.199979 -0.0211002 0)
(0.199709 -0.0253633 0)
(0.20001 -0.00366842 0)
(0.199953 -0.0102945 0)
(0.199761 -0.0158532 0)
(0.199436 -0.0205443 0)
(0.199036 -0.024489 0)
(0.199996 -0.00359812 0)
(0.199798 -0.0100006 0)
(0.199422 -0.0152963 0)
(0.19892 -0.0197138 0)
(0.198374 -0.023401 0)
(0.199984 -0.00344453 0)
(0.199656 -0.00951289 0)
(0.199104 -0.01449 0)
(0.198421 -0.018618 0)
(0.197711 -0.0220556 0)
(0.199974 -0.00322216 0)
(0.199524 -0.0088589 0)
(0.198798 -0.0134593 0)
(0.19793 -0.0172657 0)
(0.197042 -0.0204358 0)
(0.199965 -0.00294206 0)
(0.199398 -0.0080614 0)
(0.198504 -0.0122276 0)
(0.19745 -0.0156729 0)
(0.196377 -0.0185461 0)
(0.199956 -0.00261382 0)
(0.199281 -0.00714286 0)
(0.198227 -0.0108228 0)
(0.196994 -0.0138672 0)
(0.195737 -0.0164108 0)
(0.199949 -0.00224718 0)
(0.199175 -0.00612782 0)
(0.197975 -0.0092784 0)
(0.196578 -0.0118871 0)
(0.19515 -0.014071 0)
(0.199943 -0.00185244 0)
(0.199084 -0.00504299 0)
(0.197758 -0.00763282 0)
(0.196218 -0.00977919 0)
(0.19464 -0.0115794 0)
(0.199938 -0.00144024 0)
(0.19901 -0.00391598 0)
(0.197582 -0.0059265 0)
(0.195926 -0.00759397 0)
(0.194225 -0.00899445 0)
(0.199935 -0.00102089 0)
(0.198957 -0.00277367 0)
(0.197453 -0.00419916 0)
(0.195711 -0.00538134 0)
(0.193917 -0.00637506 0)
(0.199931 -0.000603589 0)
(0.198926 -0.00164077 0)
(0.19737 -0.00248679 0)
(0.195573 -0.00318688 0)
(0.193718 -0.00377551 0)
(0.199921 -0.000200074 0)
(0.198921 -0.000536784 0)
(0.197334 -0.000818013 0)
(0.195509 -0.00104861 0)
(0.193625 -0.0012423 0)
(0.199921 0.000200818 0)
(0.198921 0.000538796 0)
(0.197334 0.000821036 0)
(0.195509 0.00105242 0)
(0.193625 0.00124674 0)
(0.199931 0.000604333 0)
(0.198926 0.00164278 0)
(0.19737 0.0024898 0)
(0.195573 0.00319068 0)
(0.193718 0.00377994 0)
(0.199935 0.00102163 0)
(0.198957 0.00277568 0)
(0.197453 0.00420216 0)
(0.195711 0.00538513 0)
(0.193917 0.00637947 0)
(0.199938 0.00144098 0)
(0.19901 0.00391798 0)
(0.197582 0.0059295 0)
(0.195926 0.00759775 0)
(0.194225 0.00899884 0)
(0.199943 0.00185317 0)
(0.199084 0.00504497 0)
(0.197758 0.00763579 0)
(0.196218 0.00978294 0)
(0.19464 0.0115837 0)
(0.199949 0.0022479 0)
(0.199175 0.00612979 0)
(0.197975 0.00928135 0)
(0.196578 0.0118908 0)
(0.19515 0.0140753 0)
(0.199956 0.00261454 0)
(0.199281 0.00714481 0)
(0.198227 0.0108257 0)
(0.196994 0.0138708 0)
(0.195737 0.0164151 0)
(0.199965 0.00294277 0)
(0.199398 0.00806333 0)
(0.198504 0.0122305 0)
(0.19745 0.0156766 0)
(0.196377 0.0185503 0)
(0.199974 0.00322286 0)
(0.199524 0.0088608 0)
(0.198798 0.0134621 0)
(0.19793 0.0172693 0)
(0.197042 0.02044 0)
(0.199984 0.00344522 0)
(0.199656 0.00951476 0)
(0.199104 0.0144928 0)
(0.198421 0.0186216 0)
(0.197712 0.0220597 0)
(0.199996 0.0035988 0)
(0.199798 0.0100024 0)
(0.199422 0.015299 0)
(0.19892 0.0197173 0)
(0.198374 0.0234051 0)
(0.20001 0.00366908 0)
(0.199953 0.0102963 0)
(0.199761 0.0158559 0)
(0.199436 0.0205477 0)
(0.199036 0.024493 0)
(0.200026 0.00363835 0)
(0.200122 0.0103611 0)
(0.200123 0.0161291 0)
(0.199979 0.0211035 0)
(0.199709 0.0253673 0)
(0.200037 0.00347924 0)
(0.200271 0.0101492 0)
(0.200458 0.0160607 0)
(0.200516 0.0213391 0)
(0.200373 0.0260567 0)
(0.200065 0.00312182 0)
(0.200334 0.00959344 0)
(0.2006 0.0155906 0)
(0.200831 0.0211703 0)
(0.200688 0.026415 0)
(0.198506 -0.0381948 0)
(0.196765 -0.0437953 0)
(0.195281 -0.0489252 0)
(0.194248 -0.0535307 2.81592e-22)
(0.193519 -0.0574999 0)
(0.193035 -0.0607715 0)
(0.192785 -0.0632791 -1.92769e-20)
(0.192757 -0.0649268 1.9447e-20)
(0.192929 -0.0655975 1.57863e-22)
(0.193231 -0.0652368 1.01081e-20)
(0.193635 -0.0637157 1.80144e-23)
(0.194063 -0.0608815 -1.40728e-23)
(0.194434 -0.0568041 -5.20447e-21)
(0.194666 -0.0515529 -5.16315e-21)
(0.194683 -0.0452711 -1.2051e-20)
(0.194431 -0.038169 1.20553e-20)
(0.19388 -0.0305059 -4.83569e-21)
(0.19303 -0.0225627 -4.48519e-21)
(0.19191 -0.014621 3.14334e-22)
(0.190568 -0.00693717 3.58149e-22)
(0.189055 0.000277978 8.60783e-21)
(0.187447 0.00691772 -1.26842e-22)
(0.185829 0.0128522 1.47218e-20)
(0.184262 0.0180234 -1.45916e-20)
(0.182793 0.0224202 0)
(0.181465 0.0260634 0)
(0.180308 0.0289938 -1.85259e-22)
(0.179346 0.0312637 0)
(0.178599 0.0329274 0)
(0.178061 0.0340106 0)
(0.197616 -0.0415588 0)
(0.196038 -0.0470692 0)
(0.194841 -0.0517657 0)
(0.193997 -0.0558597 -2.66146e-22)
(0.193387 -0.0593375 0)
(0.192997 -0.0621584 0)
(0.192826 -0.0642511 1.91932e-20)
(0.19286 -0.0655185 -1.96546e-20)
(0.193075 -0.0658516 -1.48579e-22)
(0.1934 -0.0652187 0)
(0.19381 -0.0634536 0)
(0.194216 -0.060475 -9.55456e-21)
(0.194554 -0.0563457 9.58465e-21)
(0.194743 -0.0511368 0)
(0.194717 -0.0449849 -3.21438e-20)
(0.194428 -0.0380838 3.21441e-20)
(0.193851 -0.0306679 0)
(0.192989 -0.0229926 8.68941e-21)
(0.19187 -0.0153098 -8.73353e-21)
(0.190537 -0.00785059 0)
(0.189053 -0.000805584 0)
(0.187476 0.00570925 1.18995e-22)
(0.185874 0.0115813 -1.41485e-20)
(0.184313 0.016752 1.42552e-20)
(0.182842 0.0212021 0)
(0.181496 0.0249428 0)
(0.180306 0.0280062 1.74453e-22)
(0.179293 0.0304375 0)
(0.17848 0.0322949 0)
(0.177876 0.0336554 0)
(0.196779 -0.0441499 0)
(0.195519 -0.0491493 0)
(0.194504 -0.0534269 0)
(0.193752 -0.0571867 1.95885e-20)
(0.193215 -0.0603818 -1.98059e-20)
(0.192897 -0.0629483 2.06765e-20)
(0.192793 -0.0648031 -2.08709e-20)
(0.192884 -0.0658481 3.21563e-22)
(0.193143 -0.0659832 0)
(0.193499 -0.0651832 0)
(0.193923 -0.0632609 -3.20901e-22)
(0.194325 -0.0601877 0)
(0.19464 -0.0560144 0)
(0.194791 -0.0508147 -7.5941e-23)
(0.194713 -0.0447231 -5.29137e-20)
(0.194363 -0.037926 5.29141e-20)
(0.193721 -0.0306465 7.02413e-23)
(0.192795 -0.0231248 0)
(0.191615 -0.0155973 0)
(0.19023 -0.00827848 2.54324e-22)
(0.188698 -0.00134538 0)
(0.187082 0.00506635 0)
(0.185449 0.0108716 -2.35783e-22)
(0.183857 0.0160126 -1.37399e-20)
(0.182355 0.0204672 1.36119e-20)
(0.180977 0.0242423 -1.2623e-20)
(0.17975 0.0273641 1.24658e-20)
(0.17869 0.0298703 0)
(0.177829 0.0318186 0)
(0.177243 0.0333542 0)
(0.196039 -0.0464783 0)
(0.195003 -0.0510577 -4.24097e-20)
(0.194092 -0.0550003 2.13842e-20)
(0.193409 -0.0584673 4.44425e-20)
(0.192943 -0.0613932 -4.49793e-20)
(0.192693 -0.0637063 2.23729e-20)
(0.19265 -0.065321 0)
(0.192799 -0.0661417 7.02304e-22)
(0.193093 -0.0660858 0)
(0.193489 -0.0651082 0)
(0.193929 -0.0630335 1.13842e-20)
(0.19433 -0.0598683 -1.07586e-20)
(0.194626 -0.0556522 0)
(0.194736 -0.0504621 7.97281e-23)
(0.194599 -0.0444307 -7.32734e-20)
(0.194173 -0.0377375 7.32739e-20)
(0.193444 -0.0305946 -7.37442e-23)
(0.192422 -0.0232286 0)
(0.191144 -0.0158611 -8.49333e-21)
(0.189662 -0.00869275 7.93438e-21)
(0.188039 -0.00188996 2.42739e-22)
(0.186342 0.00442035 0)
(0.184635 0.0101533 -4.4442e-22)
(0.182978 0.0152559 0)
(0.181417 0.0197063 1.29839e-20)
(0.179987 0.0235084 -2.47419e-20)
(0.178711 0.0266841 2.33862e-20)
(0.177601 0.029264 1.04982e-20)
(0.176689 0.0313016 -2.16733e-20)
(0.176141 0.0330129 0)
(0.19528 -0.048696 0)
(0.194379 -0.0529106 4.75954e-20)
(0.19355 -0.0565406 -4.67706e-20)
(0.192938 -0.0597188 0)
(0.192542 -0.0623754 0)
(0.192356 -0.0644345 7.61459e-22)
(0.192371 -0.0658095 0)
(0.192573 -0.0664057 -7.35907e-22)
(0.192905 -0.0661624 1.16178e-20)
(0.193335 -0.064999 -1.17774e-20)
(0.193787 -0.0627761 -1.16342e-20)
(0.194186 -0.0595145 1.13327e-20)
(0.194458 -0.0552502 3.38204e-22)
(0.194522 -0.0500631 -1.63248e-22)
(0.194318 -0.0440843 -9.32433e-20)
(0.193806 -0.0374876 9.32437e-20)
(0.192974 -0.0304755 1.44429e-22)
(0.19184 -0.0232621 -2.76382e-22)
(0.190442 -0.0160555 8.48995e-21)
(0.18884 -0.009043 -8.1834e-21)
(0.1871 -0.00238036 -8.04176e-21)
(0.185292 0.00381437 7.73184e-21)
(0.183485 0.00945996 4.65751e-22)
(0.181736 0.0145073 0)
(0.180093 0.0189355 -4.01712e-22)
(0.178592 0.0227474 0)
(0.177253 0.0259614 0)
(0.176084 0.0286023 -2.22533e-20)
(0.175116 0.0307178 2.12823e-20)
(0.174598 0.0325958 0)
(0.194425 -0.0508041 4.89844e-20)
(0.193609 -0.0546701 -7.70037e-20)
(0.192855 -0.058 2.53708e-20)
(0.192314 -0.0609007 0)
(0.191982 -0.0632979 2.56546e-20)
(0.191856 -0.0651118 -2.51233e-20)
(0.191927 -0.0662546 2.47103e-20)
(0.192177 -0.0666347 -2.56033e-20)
(0.192545 -0.0662067 0)
(0.193003 -0.0648558 -7.73916e-22)
(0.193463 -0.0624882 1.18541e-20)
(0.193854 -0.0591264 -6.16831e-21)
(0.194094 -0.0548072 -9.29987e-22)
(0.194105 -0.0496132 -5.38901e-21)
(0.193827 -0.0436748 -1.12851e-19)
(0.193221 -0.0371613 1.12848e-19)
(0.192279 -0.0302674 -4.81737e-21)
(0.191022 -0.0231964 7.70856e-22)
(0.189495 -0.0161445 -4.05854e-21)
(0.18776 -0.00928708 8.44997e-21)
(0.185889 -0.00276906 4.79591e-22)
(0.183956 0.00329953 0)
(0.18203 0.00884322 -1.41151e-20)
(0.180172 0.0138171 1.43943e-20)
(0.17843 0.0182024 -1.32585e-20)
(0.176841 0.0220018 1.27316e-20)
(0.175425 0.0252318 7.25878e-22)
(0.174187 0.0279125 1.11981e-20)
(0.173152 0.0300854 -3.2701e-20)
(0.172646 0.0321055 2.30858e-20)
(0.193429 -0.0527862 -2.56513e-20)
(0.192666 -0.0563175 2.89743e-20)
(0.191981 -0.0593654 2.90167e-20)
(0.191506 -0.0620041 -2.94229e-20)
(0.191235 -0.0641539 2.75021e-20)
(0.191166 -0.0657318 -2.95548e-20)
(0.191288 -0.0666508 -8.84004e-22)
(0.191582 -0.0668236 0)
(0.191982 -0.0662106 1.30673e-20)
(0.19246 -0.0646732 3.71822e-22)
(0.192921 -0.062163 3.21062e-22)
(0.193296 -0.0586975 -1.28912e-20)
(0.193499 -0.0543165 -5.38707e-21)
(0.193451 -0.0491056 8.52246e-21)
(0.193092 -0.0431953 -1.3457e-19)
(0.192387 -0.0367516 1.29329e-19)
(0.191332 -0.0299626 7.20218e-21)
(0.18995 -0.0230226 -5.27867e-21)
(0.188289 -0.0161173 -8.48802e-21)
(0.186418 -0.00941132 -1.20041e-22)
(0.18441 -0.00303973 -1.62099e-22)
(0.182344 0.00289561 7.6065e-21)
(0.180292 0.00832551 0)
(0.178314 0.0132097 3.8433e-22)
(0.176462 0.0175324 -1.19078e-20)
(0.174773 0.0212972 1.2583e-20)
(0.173267 0.0245198 -1.16686e-20)
(0.171948 0.0272172 1.07777e-20)
(0.170837 0.0294252 1.06723e-20)
(0.170321 0.0315558 -1.20933e-20)
(0.192253 -0.054638 0)
(0.191523 -0.057853 2.72307e-20)
(0.190901 -0.0606388 -3.3164e-20)
(0.190487 -0.0630303 3.12409e-20)
(0.190273 -0.0649432 -2.98319e-20)
(0.190257 -0.0662934 2.73848e-20)
(0.190428 -0.0669948 -2.7725e-20)
(0.190756 -0.0669691 -1.80845e-21)
(0.191187 -0.0661638 -8.85389e-22)
(0.191676 -0.0644435 -8.6351e-22)
(0.192133 -0.0617914 -8.32239e-22)
(0.192484 -0.0582184 4.012e-22)
(0.192642 -0.0537689 -6.35141e-21)
(0.192528 -0.0485322 3.15256e-21)
(0.192084 -0.0426392 -1.47505e-19)
(0.191279 -0.0362533 1.52874e-19)
(0.190109 -0.0295571 2.24128e-21)
(0.188602 -0.0227375 -4.17732e-21)
(0.18681 -0.0159708 2.65191e-22)
(0.184804 -0.00941195 1.02457e-21)
(0.182661 -0.00318685 4.70084e-22)
(0.180461 0.00261058 4.44587e-22)
(0.178279 0.00791751 8.43867e-22)
(0.176178 0.0126986 -1.39439e-20)
(0.17421 0.0169414 1.36978e-20)
(0.172413 0.0206514 -1.19914e-20)
(0.170809 0.0238443 1.10742e-20)
(0.1694 0.0265355 -9.68327e-21)
(0.168205 0.0287568 1.15903e-20)
(0.167656 0.0309645 0)
(0.190863 -0.0563607 0)
(0.190153 -0.0592793 1.97735e-21)
(0.189589 -0.0618209 -2.74087e-20)
(0.18923 -0.063978 4.16162e-22)
(0.189071 -0.0656631 3.18993e-20)
(0.189104 -0.066792 1.94929e-21)
(0.189321 -0.0672792 1.94972e-21)
(0.189674 -0.0670618 -1.30416e-20)
(0.190131 -0.0660579 1.61154e-20)
(0.190623 -0.0641605 -4.95034e-24)
(0.19107 -0.0613637 -6.82535e-21)
(0.191389 -0.0576787 6.86635e-21)
(0.191495 -0.0531549 -2.69298e-21)
(0.19131 -0.0478846 3.10214e-21)
(0.190779 -0.0419997 -1.68294e-19)
(0.189872 -0.0356615 1.68293e-19)
(0.188589 -0.0290481 2.40632e-21)
(0.186961 -0.0223395 -2.69529e-21)
(0.185043 -0.0157038 3.93991e-21)
(0.182906 -0.00928737 -5.20951e-21)
(0.180633 -0.00320753 -2.91767e-23)
(0.178304 0.00244932 7.0295e-21)
(0.175996 0.00762663 -7.87112e-21)
(0.173773 0.012294 -7.82498e-22)
(0.171688 0.0164426 -8.0227e-22)
(0.169781 0.0200802 1.17114e-20)
(0.168073 0.0232233 -3.27748e-22)
(0.166568 0.0258869 -1.2393e-20)
(0.165282 0.0281005 0)
(0.16468 0.030352 0)
(0.189224 -0.0579565 0)
(0.188527 -0.0605975 -3.53022e-20)
(0.188016 -0.0629101 4.10466e-22)
(0.187711 -0.0648436 5.229e-22)
(0.187601 -0.0663084 6.52766e-20)
(0.18768 -0.0672214 -3.38587e-20)
(0.187936 -0.0674994 -2.03759e-21)
(0.188314 -0.0670898 0)
(0.188789 -0.0658847 1.44475e-20)
(0.189277 -0.0638123 -1.46513e-20)
(0.189705 -0.0608685 7.13569e-21)
(0.189986 -0.057068 -3.99383e-22)
(0.190034 -0.0524648 -6.81412e-21)
(0.189775 -0.0471548 1.92603e-22)
(0.189155 -0.0412707 -1.85586e-19)
(0.188146 -0.0349722 1.85668e-19)
(0.186754 -0.0284333 -1.54089e-22)
(0.18501 -0.0218278 -4.50451e-21)
(0.182972 -0.0153166 2.93563e-22)
(0.180714 -0.0090378 5.16909e-21)
(0.178318 -0.00310115 -7.80478e-21)
(0.175868 0.00241407 7.22128e-21)
(0.17344 0.0074573 0)
(0.1711 0.012003 8.17844e-22)
(0.168901 0.0160459 -1.18348e-20)
(0.166884 0.0195965 2.36901e-20)
(0.165072 0.0226724 -3.04498e-22)
(0.163467 0.0252892 5.58647e-22)
(0.162087 0.0274756 -1.03717e-20)
(0.161415 0.0297396 0)
(0.187304 -0.0594274 -4.54708e-21)
(0.186616 -0.0618074 0)
(0.186156 -0.0639037 -2.21998e-21)
(0.185901 -0.0656221 3.33711e-20)
(0.185839 -0.0668725 -3.62739e-20)
(0.185961 -0.0675737 3.50704e-20)
(0.186249 -0.0676477 -3.53693e-20)
(0.18665 -0.06704 -1.67031e-20)
(0.187133 -0.0656333 3.53222e-20)
(0.187612 -0.0633869 2.10455e-22)
(0.188014 -0.0602944 -1.48012e-20)
(0.18825 -0.0563755 7.04813e-21)
(0.188236 -0.0516892 -3.77478e-21)
(0.1879 -0.046335 -5.06556e-21)
(0.187189 -0.0404464 -2.00667e-19)
(0.186082 -0.0341817 2.0344e-19)
(0.184584 -0.0277111 -3.59823e-21)
(0.182731 -0.0212026 -2.06361e-21)
(0.180581 -0.0148104 4.4717e-21)
(0.178212 -0.00866508 -8.66826e-21)
(0.175704 -0.00286925 3.12823e-23)
(0.173143 0.0025044 1.28912e-20)
(0.170605 0.00741092 -6.60266e-21)
(0.168155 0.0118294 -1.19061e-20)
(0.165849 0.0157581 1.17412e-20)
(0.163727 0.0192101 -1.09188e-20)
(0.161812 0.0222044 1.13073e-20)
(0.160108 0.0247578 -5.99656e-22)
(0.158633 0.0268998 0)
(0.157878 0.029148 1.43213e-21)
(0.185071 -0.0607744 4.72899e-21)
(0.184391 -0.0629076 -4.00952e-20)
(0.18398 -0.0647971 3.84329e-20)
(0.183775 -0.0663071 2.36749e-21)
(0.183758 -0.0673471 2.35843e-21)
(0.183921 -0.0678379 0)
(0.18423 -0.0677126 -2.30812e-21)
(0.184654 -0.0668987 -1.99035e-20)
(0.185138 -0.065293 3.39078e-20)
(0.185603 -0.062872 -1.83157e-20)
(0.185973 -0.059629 -1.00281e-21)
(0.186159 -0.0555897 7.31604e-21)
(0.186079 -0.0508182 -7.35536e-21)
(0.185663 -0.0454171 -2.04218e-22)
(0.184863 -0.039521 -2.17775e-19)
(0.18366 -0.0332867 2.17687e-19)
(0.182062 -0.0268804 1.56326e-22)
(0.180107 -0.0204648 -4.46864e-21)
(0.177856 -0.0141875 4.44481e-21)
(0.175386 -0.00817233 5.02315e-22)
(0.172778 -0.00251502 -6.45083e-21)
(0.170117 0.00271776 1.36912e-20)
(0.16748 0.00748629 -5.60984e-21)
(0.164932 0.0117739 6.84898e-22)
(0.162527 0.0155823 0)
(0.160306 0.0189269 -6.82769e-22)
(0.158293 0.0218285 -6.52675e-22)
(0.156493 0.0243048 9.65669e-21)
(0.154925 0.0263878 -8.84722e-21)
(0.154081 0.0285957 -1.48941e-21)
(0.182491 -0.0619967 0)
(0.181821 -0.0638944 -5.61498e-23)
(0.181459 -0.0655836 4.02171e-20)
(0.181302 -0.0668896 -4.09964e-20)
(0.181329 -0.0677218 -3.97847e-20)
(0.181529 -0.0680035 6.21215e-20)
(0.181861 -0.0676786 -1.73245e-20)
(0.1823 -0.0666528 -2.23605e-23)
(0.182779 -0.0648506 -2.30879e-21)
(0.183225 -0.0622537 0)
(0.183558 -0.0588594 -8.09246e-21)
(0.183689 -0.0546991 1.57373e-20)
(0.18354 -0.049842 -7.62712e-21)
(0.183043 -0.0443936 2.13692e-22)
(0.182156 -0.0384892 -2.32404e-19)
(0.18086 -0.032284 2.32492e-19)
(0.179169 -0.0259403 -1.63578e-22)
(0.177122 -0.0196156 -4.42353e-21)
(0.17478 -0.0134509 8.40207e-21)
(0.17222 -0.00756352 -3.97368e-21)
(0.169525 -0.00204291 0)
(0.166777 0.00304995 7.49464e-22)
(0.164053 0.00768013 -7.64404e-23)
(0.161417 0.0118349 -6.01185e-21)
(0.158924 0.0155189 1.46314e-20)
(0.156615 0.01875 -9.84544e-21)
(0.154511 0.0215502 -9.08478e-21)
(0.15262 0.0239389 9.49448e-21)
(0.150964 0.0259509 -6.50982e-23)
(0.150025 0.0280984 0)
(0.179531 -0.0630913 0)
(0.178874 -0.0647612 -3.97596e-20)
(0.178562 -0.0662539 4.33063e-20)
(0.178454 -0.0673583 3.97219e-20)
(0.178523 -0.0679839 -4.32499e-20)
(0.178756 -0.0680587 -2.31632e-20)
(0.179111 -0.0675284 8.26009e-22)
(0.17956 -0.0662877 2.2987e-20)
(0.18003 -0.0642902 4.83182e-21)
(0.180452 -0.0615172 0)
(0.180742 -0.0579719 0)
(0.180815 -0.0536915 -6.83236e-21)
(0.180595 -0.0487503 8.36757e-21)
(0.180019 -0.0432564 0)
(0.179046 -0.0373455 -2.45829e-19)
(0.177663 -0.0311707 2.45826e-19)
(0.175886 -0.0248904 0)
(0.173755 -0.0186565 4.07626e-21)
(0.171333 -0.0126039 -4.82192e-21)
(0.168697 -0.00684337 0)
(0.165927 -0.00145836 0)
(0.163107 0.00349538 -1.48216e-21)
(0.160309 0.00798736 4.5276e-21)
(0.157599 0.0120083 -3.02279e-22)
(0.155029 0.0155657 -4.16431e-21)
(0.15264 0.0186792 -8.63626e-21)
(0.150456 0.0213721 8.95193e-21)
(0.148481 0.0236655 8.08255e-21)
(0.146742 0.0255969 -8.45118e-21)
(0.14571 0.0276681 0)
(0.176152 -0.0640526 0)
(0.175516 -0.0654967 0)
(0.175255 -0.0667959 0)
(0.175197 -0.0676997 -4.20117e-20)
(0.175311 -0.0681177 2.05536e-20)
(0.17557 -0.0679878 2.51185e-20)
(0.17595 -0.0672418 2.72329e-21)
(0.176403 -0.0657878 2.05245e-20)
(0.176862 -0.0635952 -1.1459e-21)
(0.177255 -0.0606466 -1.98973e-20)
(0.177499 -0.0569518 -1.13401e-21)
(0.177512 -0.0525543 -2.11631e-21)
(0.17722 -0.0475326 -4.69941e-21)
(0.176565 -0.0419974 3.51992e-21)
(0.17551 -0.0360843 -2.57733e-19)
(0.174046 -0.0299439 2.5774e-19)
(0.17219 -0.0237303 2.56599e-21)
(0.169986 -0.0175896 -1.83683e-21)
(0.167496 -0.0116504 9.91803e-22)
(0.164796 -0.00601722 4.15947e-22)
(0.161967 -0.000767745 -5.8754e-21)
(0.159087 0.00404726 6.3955e-22)
(0.156229 0.0084013 5.1798e-21)
(0.153458 0.0122882 -5.12857e-22)
(0.150825 0.0157179 3.56665e-21)
(0.148369 0.0187115 4.04644e-21)
(0.146112 0.0212934 -7.91789e-21)
(0.144063 0.0234861 0)
(0.142249 0.0253302 0)
(0.141126 0.0273132 0)
(0.172317 -0.0648682 -4.76931e-20)
(0.171708 -0.0660882 5.02568e-20)
(0.171503 -0.0671949 0)
(0.171497 -0.0678974 -2.36408e-20)
(0.171655 -0.0681061 2.68904e-20)
(0.171944 -0.0677685 2.27525e-20)
(0.172344 -0.0667997 -2.90085e-20)
(0.172799 -0.0651345 0)
(0.173244 -0.0627469 -2.64325e-21)
(0.173604 -0.0596244 0)
(0.173799 -0.0557835 3.38049e-24)
(0.173749 -0.0512738 9.06952e-24)
(0.173385 -0.046178 1.00315e-21)
(0.172653 -0.0406085 4.54234e-22)
(0.171521 -0.0347002 -2.68258e-19)
(0.169982 -0.0286008 2.68243e-19)
(0.168057 -0.0224598 -3.1578e-22)
(0.165791 -0.016417 -5.49631e-22)
(0.163246 -0.0105947 -4.22621e-23)
(0.160496 -0.00509114 -4.50638e-23)
(0.15762 2.1638e-05 0)
(0.154696 0.00469753 6.66855e-22)
(0.151794 0.0089137 0)
(0.148976 0.0126667 -2.76447e-21)
(0.146291 0.0159684 3.76261e-21)
(0.14378 0.0188412 2.70042e-21)
(0.141463 0.0213102 -3.08604e-21)
(0.139349 0.0233989 0)
(0.137468 0.0251511 6.90759e-21)
(0.136259 0.0270375 -7.28309e-21)
(0.167981 -0.0655221 0)
(0.16741 -0.0665191 7.01432e-23)
(0.167265 -0.0674322 5.3326e-20)
(0.167316 -0.0679305 -5.09796e-20)
(0.167515 -0.0679286 3.1224e-21)
(0.167839 -0.0673749 -6.12017e-21)
(0.168258 -0.0661803 2.97985e-21)
(0.168712 -0.0643054 0)
(0.169139 -0.0617242 0)
(0.169464 -0.0584313 0)
(0.169607 -0.05445 1.22621e-21)
(0.169494 -0.0498357 -7.47374e-21)
(0.16906 -0.0446747 1.20535e-20)
(0.168253 -0.0390807 -5.89816e-21)
(0.167049 -0.0331874 -2.74838e-19)
(0.165443 -0.0271388 2.7791e-19)
(0.163459 -0.021079 -3.49119e-21)
(0.161142 -0.0151415 6.5241e-21)
(0.158555 -0.00944188 -4.39155e-21)
(0.155769 -0.00407208 -4.04163e-22)
(0.152862 0.00090136 -2.92747e-22)
(0.149909 0.00543675 0)
(0.146977 0.00951459 0)
(0.144126 0.0131338 -4.47978e-22)
(0.141405 0.0163077 6.87103e-22)
(0.138851 0.0190597 -2.51882e-22)
(0.136485 0.0214151 -4.39842e-21)
(0.134317 0.0233985 4.09285e-21)
(0.132378 0.0250561 1.02636e-22)
(0.131091 0.026841 0)
(0.1631 -0.0659914 -5.25946e-20)
(0.162573 -0.0667695 4.87623e-20)
(0.162495 -0.0674841 2.30647e-20)
(0.162608 -0.0677727 -2.68352e-20)
(0.162853 -0.067559 -2.87756e-20)
(0.163213 -0.0667772 2.95044e-20)
(0.163648 -0.0653594 2.44674e-20)
(0.164101 -0.0632753 -2.1882e-20)
(0.164508 -0.0605034 1.25975e-20)
(0.164794 -0.0570456 -1.13128e-20)
(0.164885 -0.0529323 1.09434e-20)
(0.164709 -0.048224 -5.35941e-21)
(0.164205 -0.0430101 -3.92987e-21)
(0.163328 -0.0374049 2.31422e-22)
(0.162057 -0.03154 -2.82545e-19)
(0.160393 -0.0255552 2.82524e-19)
(0.158361 -0.0195885 -1.45744e-22)
(0.156006 -0.0137665 -2.10093e-21)
(0.15339 -0.00819785 -1.21415e-21)
(0.150584 -0.00296813 3.02877e-21)
(0.147662 0.00186156 -1.70449e-21)
(0.144695 0.00625376 1.78888e-21)
(0.141749 0.010192 -2.89787e-21)
(0.13888 0.0136772 2.55837e-21)
(0.136136 0.0167237 1.48052e-21)
(0.133553 0.0193555 -1.47889e-21)
(0.131151 0.0215978 -1.3189e-21)
(0.128938 0.0234758 1.49639e-21)
(0.126952 0.0250378 4.5663e-21)
(0.125594 0.0267185 -4.36931e-21)
(0.15762 -0.0662494 -3.45673e-21)
(0.157146 -0.0668122 -5.47731e-20)
(0.157144 -0.0673201 6.0252e-20)
(0.157323 -0.0673939 0)
(0.157619 -0.0669606 -3.46421e-21)
(0.158016 -0.0659448 0)
(0.158467 -0.0643055 -3.31394e-21)
(0.158918 -0.0620145 2.45118e-20)
(0.159302 -0.0590571 -2.64167e-20)
(0.159549 -0.055443 1.4145e-21)
(0.159586 -0.0512092 -2.61796e-21)
(0.159346 -0.046421 -1.18837e-21)
(0.158775 -0.0411703 -5.41431e-22)
(0.157833 -0.0355711 -2.40209e-22)
(0.156503 -0.029752 -2.85581e-19)
(0.15479 -0.0238477 2.85571e-19)
(0.152721 -0.0179893 1.51278e-22)
(0.150342 -0.0122963 2.50187e-22)
(0.147713 -0.00686985 -3.48399e-22)
(0.144903 -0.00178903 0)
(0.141981 0.00289043 -1.89161e-22)
(0.139017 0.00713511 -2.08742e-21)
(0.136073 0.0109313 2.38299e-21)
(0.133203 0.0142815 8.84724e-23)
(0.130451 0.0172008 0)
(0.127852 0.0197132 -3.09296e-24)
(0.125426 0.0218434 0)
(0.123181 0.0236171 7.79255e-22)
(0.121157 0.0250839 -7.11803e-22)
(0.119737 0.02666 1.75076e-22)
(0.151475 -0.0662629 -5.4433e-20)
(0.151069 -0.0666069 5.71858e-20)
(0.151151 -0.0669 9.66181e-23)
(0.151399 -0.0667556 3.21909e-20)
(0.151755 -0.0660892 -5.41072e-20)
(0.15219 -0.0648405 3.25767e-20)
(0.152658 -0.0629816 3.41129e-21)
(0.153105 -0.060488 3.81862e-23)
(0.153465 -0.0573534 0)
(0.15367 -0.0535951 -1.46076e-21)
(0.153652 -0.0492563 -7.53033e-21)
(0.15335 -0.0444068 1.15738e-20)
(0.152714 -0.0391399 5.38674e-22)
(0.151713 -0.0335684 -1.52937e-21)
(0.150332 -0.0278169 -2.83484e-19)
(0.148581 -0.0220141 2.86492e-19)
(0.146488 -0.0162836 -1.36054e-21)
(0.1441 -0.0107367 -2.01441e-22)
(0.141475 -0.00546702 2.64573e-21)
(0.138677 -0.000546869 -2.25918e-21)
(0.135775 0.00397339 1.95346e-22)
(0.132832 0.0080642 0)
(0.129907 0.0117143 1.67053e-22)
(0.127052 0.0149275 -9.10705e-23)
(0.124308 0.0177192 -3.47468e-22)
(0.121707 0.0201128 1.2098e-21)
(0.11927 0.0221325 -5.3353e-22)
(0.117005 0.0238034 1.57659e-22)
(0.114953 0.0251765 2.44041e-22)
(0.11348 0.0266492 -4.26267e-22)
(0.144592 -0.0659842 0)
(0.144269 -0.0661036 0)
(0.144443 -0.0661736 -3.38392e-20)
(0.144771 -0.0658032 2.73476e-20)
(0.145191 -0.0648967 0)
(0.145664 -0.0634176 -3.66437e-21)
(0.14615 -0.0613422 -3.61319e-21)
(0.146591 -0.0586536 -3.4068e-21)
(0.146925 -0.0553539 0)
(0.147086 -0.0514679 0)
(0.147013 -0.047045 -1.38578e-21)
(0.14665 -0.042158 5.28802e-21)
(0.145954 -0.0369012 -5.81197e-21)
(0.144899 -0.0313847 -2.41282e-22)
(0.143477 -0.0257283 -2.81097e-19)
(0.141701 -0.0200532 2.81162e-19)
(0.139599 -0.0144747 1.3505e-22)
(0.137219 -0.00909567 -9.31467e-22)
(0.134615 -0.00400135 1.3007e-21)
(0.13185 0.00074282 0)
(0.128985 0.00509184 0)
(0.126083 0.00901989 0)
(0.123196 0.0125179 0)
(0.120373 0.0155905 -2.53557e-22)
(0.117653 0.0182531 -1.2863e-22)
(0.115067 0.0205281 0)
(0.112632 0.0224385 -2.52829e-21)
(0.11036 0.0240089 2.05506e-21)
(0.10829 0.0252904 0)
(0.106775 0.0266621 0)
(0.136879 -0.0653489 -3.9862e-21)
(0.136657 -0.0652361 0)
(0.136934 -0.0650786 0)
(0.137353 -0.0644678 0)
(0.137839 -0.0633219 0)
(0.138353 -0.0616153 0)
(0.138855 -0.0593301 3.69021e-21)
(0.139288 -0.0564587 1.78993e-21)
(0.139593 -0.0530115 -1.27734e-20)
(0.139709 -0.0490209 2.80634e-21)
(0.13958 -0.0445411 2.39921e-20)
(0.139158 -0.0396476 -1.61134e-20)
(0.138407 -0.0344341 7.01918e-22)
(0.137306 -0.0290069 4.09357e-21)
(0.135854 -0.0234795 -2.72101e-19)
(0.134066 -0.0179648 2.72058e-19)
(0.131972 -0.0125687 1.56724e-21)
(0.129618 -0.00738454 -5.56495e-22)
(0.127056 -0.00248909 -2.17548e-21)
(0.124344 0.00205939 1.43941e-21)
(0.12154 0.00622131 -6.04432e-22)
(0.118699 0.00997443 3.11719e-22)
(0.115871 0.0133116 1.90171e-22)
(0.1131 0.0162379 2.5896e-22)
(0.110423 0.0187684 0)
(0.107869 0.0209239 0)
(0.105452 0.0227259 0)
(0.103185 0.0241978 0)
(0.10111 0.02539 0)
(0.0995607 0.0266638 -3.53594e-22)
(0.128226 -0.0642703 8.21125e-21)
(0.128124 -0.0639191 -3.27746e-20)
(0.128518 -0.0635216 3.40527e-20)
(0.129034 -0.0626647 0)
(0.129589 -0.0612827 -3.20246e-20)
(0.130144 -0.0593547 3.70107e-20)
(0.130659 -0.0568721 -3.16947e-20)
(0.131081 -0.0538366 2.68155e-20)
(0.131353 -0.0502673 0)
(0.131421 -0.0462032 1.04006e-20)
(0.131236 -0.0417028 -2.88131e-21)
(0.130757 -0.0368429 -1.56027e-20)
(0.129956 -0.031715 5.31102e-21)
(0.12882 -0.0264205 1.64692e-21)
(0.127351 -0.0210647 -2.58901e-19)
(0.125568 -0.0157511 2.56165e-19)
(0.123502 -0.0105751 9.52903e-22)
(0.121196 -0.00561986 5.63966e-22)
(0.1187 -0.000953069 -1.09913e-21)
(0.116065 0.00337443 9.66628e-22)
(0.113346 0.00732846 -5.1331e-22)
(0.110591 0.0108902 -2.49513e-22)
(0.107845 0.0140541 -4.89409e-21)
(0.105149 0.0168256 3.92003e-21)
(0.102536 0.0192184 -4.66039e-21)
(0.100032 0.0212519 5.29292e-21)
(0.0976504 0.0229452 0)
(0.0954044 0.0243199 -5.59838e-21)
(0.0933365 0.0254253 5.42025e-21)
(0.0917647 0.0266044 9.5411e-22)
(0.118491 -0.0626252 2.61843e-20)
(0.118531 -0.0620282 -3.40874e-20)
(0.119055 -0.0613793 -3.00629e-20)
(0.119671 -0.0602793 3.57256e-20)
(0.120296 -0.0586672 3.75552e-20)
(0.12089 -0.0565307 -7.45982e-20)
(0.121413 -0.0538713 5.22996e-20)
(0.121818 -0.0507005 -1.38492e-20)
(0.122052 -0.0470454 0)
(0.122069 -0.0429507 -1.21303e-20)
(0.121827 -0.0384782 1.09101e-20)
(0.121294 -0.0337043 -6.25755e-22)
(0.120451 -0.0287166 -1.94632e-21)
(0.119291 -0.0236096 2.74036e-21)
(0.117822 -0.0184794 -2.36001e-19)
(0.116064 -0.0134182 2.34803e-19)
(0.11405 -0.00850985 8.6464e-22)
(0.111818 -0.00382657 -4.59435e-22)
(0.109415 0.000573606 -3.08376e-23)
(0.106887 0.00464746 -1.68317e-21)
(0.10428 0.00836626 1.69919e-21)
(0.10164 0.0117144 6.41405e-22)
(0.0990049 0.0146878 3.5893e-21)
(0.0964102 0.0172914 -9.5268e-21)
(0.0938855 0.0195378 1.27825e-20)
(0.0914539 0.0214438 -6.29957e-21)
(0.0891288 0.0230259 -8.02841e-21)
(0.086922 0.0243036 7.77147e-21)
(0.0848767 0.025324 6.49239e-21)
(0.0832948 0.026411 -8.09668e-21)
(0.10749 -0.0602325 4.09144e-20)
(0.107695 -0.0593794 4.80863e-21)
(0.108353 -0.0584827 -5.72717e-21)
(0.10907 -0.0571464 -3.71821e-20)
(0.109761 -0.055319 -4.35108e-21)
(0.110386 -0.0529983 6.39971e-21)
(0.11091 -0.0501964 5.73824e-23)
(0.111288 -0.046934 0)
(0.111478 -0.0432455 0)
(0.111439 -0.0391803 -1.2173e-20)
(0.11114 -0.0348013 1.38567e-20)
(0.110559 -0.0301828 6.30217e-22)
(0.109685 -0.0254067 0)
(0.108517 -0.0205585 5.20205e-22)
(0.107069 -0.0157229 -2.05807e-19)
(0.105362 -0.0109795 2.04737e-19)
(0.103427 -0.00639962 3.44256e-22)
(0.101302 -0.00204338 0)
(0.0990251 0.00204121 3.10573e-23)
(0.0966382 0.0058188 -2.35445e-21)
(0.0941807 0.00926604 2.19711e-21)
(0.0916897 0.0123704 -3.90487e-22)
(0.0891988 0.0151287 0)
(0.0867377 0.0175454 1.68642e-22)
(0.0843321 0.019631 1.79102e-21)
(0.082002 0.0213997 -1.12058e-21)
(0.0797591 0.0228649 1.05224e-20)
(0.0776146 0.0240431 -1.38787e-23)
(0.075612 0.0249782 4.34242e-22)
(0.0740358 0.025974 -8.16318e-21)
(0.0949727 -0.0568108 -3.82378e-20)
(0.0953562 -0.0557107 3.272e-20)
(0.0961475 -0.0545754 0)
(0.0969579 -0.0530222 -3.40663e-20)
(0.0977027 -0.0510111 4.00734e-20)
(0.0983453 -0.0485505 -1.9082e-20)
(0.0988546 -0.0456624 3.1371e-20)
(0.0991944 -0.042376 -1.44646e-20)
(0.0993297 -0.0387316 0)
(0.0992313 -0.034781 0)
(0.098878 -0.0305866 5.9291e-21)
(0.0982573 -0.0262179 -5.90126e-21)
(0.0973667 -0.0217486 0)
(0.0962134 -0.0172529 1.96141e-22)
(0.0948137 -0.0128023 -1.64766e-19)
(0.093191 -0.00846216 1.64732e-19)
(0.0913743 -0.00428965 -3.6664e-23)
(0.0893958 -0.000332372 0)
(0.087289 0.00337229 1.2099e-21)
(0.0850874 0.00679696 -1.11187e-21)
(0.082823 0.00992358 0)
(0.0805255 0.0127424 0)
(0.0782217 0.0152509 6.76408e-21)
(0.0759358 0.0174523 -1.2754e-20)
(0.0736889 0.0193547 5.41099e-21)
(0.0714977 0.0209692 -1.23838e-20)
(0.0693718 0.0223055 1.38126e-20)
(0.0673217 0.0233768 0)
(0.0653898 0.0242227 -1.2969e-20)
(0.0638416 0.0251243 1.02479e-20)
(0.0805795 -0.0519133 -3.75078e-20)
(0.0811395 -0.0505943 3.64834e-20)
(0.0820466 -0.0492524 -3.86719e-20)
(0.0829268 -0.0475302 6.23921e-23)
(0.0836998 -0.0453996 4.21278e-22)
(0.0843347 -0.0428791 5.6971e-20)
(0.0848077 -0.0399993 -1.77817e-20)
(0.0850918 -0.0367959 -1.95029e-21)
(0.0851627 -0.0333128 1.34372e-20)
(0.0850025 -0.0296019 -2.55589e-20)
(0.0846013 -0.0257219 1.20291e-20)
(0.0839568 -0.0217346 4.63412e-21)
(0.0830752 -0.0177027 -5.6393e-21)
(0.0819697 -0.0136866 2.06681e-21)
(0.0806593 -0.0097422 -1.12919e-19)
(0.0791675 -0.00591913 1.12276e-19)
(0.0775197 -0.00225945 -2.946e-22)
(0.0757427 0.00120261 1.78702e-21)
(0.0738627 0.0044405 -1.25075e-21)
(0.0719047 0.00743485 -5.28099e-21)
(0.0698922 0.0101727 1.15983e-20)
(0.0678467 0.0126468 -6.16962e-21)