/*--------------------------------*- C++ -*----------------------------------*\
  =========                 |
  \\      /  F ield         | OpenFOAM: The Open Source CFD Toolbox
   \\    /   O peration     | Website:  https://openfoam.org
    \\  /    A nd           | Version:  12
     \\/     M anipulation  |
\*---------------------------------------------------------------------------*/
FoamFile
{
    format      ascii;
    class       volVectorField;
    location    "140";
    object      UMean;
}
// * * * * * * * * * * * * * * * * * * * * * * * * * * * * * * * * * * * * * //

dimensions      [0 1 -1 0 0 0 0];

internalField   nonuniform List<vector> 
6750
(
(0.200079 -0.00304026 0)
(0.200401 -0.0091409 0)
(0.20072 -0.014646 0)
(0.200995 -0.0196669 0)
(0.200932 -0.0243238 0)
(0.200036 -0.00345641 0)
(0.200298 -0.00981484 0)
(0.200529 -0.015281 0)
(0.200645 -0.0200529 0)
(0.20058 -0.0242469 0)
(0.200026 -0.00362812 0)
(0.200139 -0.0100732 0)
(0.200182 -0.0154379 0)
(0.200099 -0.0199625 0)
(0.199906 -0.0237787 0)
(0.200009 -0.00366683 0)
(0.199968 -0.01005 0)
(0.199817 -0.0152514 0)
(0.199551 -0.0195465 0)
(0.199223 -0.0231007 0)
(0.199994 -0.00360371 0)
(0.199811 -0.00979512 0)
(0.199474 -0.0147754 0)
(0.199029 -0.0188432 0)
(0.198552 -0.0221859 0)
(0.199982 -0.00345576 0)
(0.199667 -0.00934225 0)
(0.199151 -0.0140423 0)
(0.198523 -0.0178623 0)
(0.197879 -0.0209959 0)
(0.199972 -0.0032372 0)
(0.199532 -0.0087186 0)
(0.198841 -0.0130776 0)
(0.198025 -0.0166146 0)
(0.1972 -0.0195182 0)
(0.199962 -0.00295912 0)
(0.199403 -0.00794725 0)
(0.198542 -0.0119057 0)
(0.197538 -0.0151181 0)
(0.196527 -0.0177607 0)
(0.199953 -0.00263131 0)
(0.199284 -0.00705119 0)
(0.19826 -0.0105552 0)
(0.197076 -0.0134018 0)
(0.195881 -0.0157495 0)
(0.199945 -0.00226378 0)
(0.199175 -0.00605556 0)
(0.198004 -0.00906079 0)
(0.196655 -0.0115056 0)
(0.195289 -0.013527 0)
(0.199939 -0.00186715 0)
(0.199082 -0.00498762 0)
(0.197784 -0.00746134 0)
(0.196291 -0.00947652 0)
(0.194775 -0.0111466 0)
(0.199934 -0.00145234 0)
(0.199008 -0.0038755 0)
(0.197606 -0.0057979 0)
(0.195997 -0.00736564 0)
(0.194357 -0.0086672 0)
(0.19993 -0.0010299 0)
(0.198953 -0.00274649 0)
(0.197474 -0.00411061 0)
(0.195779 -0.00522327 0)
(0.194047 -0.00614802 0)
(0.199926 -0.000609289 0)
(0.198921 -0.00162566 0)
(0.197391 -0.00243588 0)
(0.195639 -0.00309536 0)
(0.193847 -0.00364369 0)
(0.199917 -0.000202265 0)
(0.198915 -0.000532898 0)
(0.197353 -0.000802702 0)
(0.195575 -0.00102029 0)
(0.193753 -0.00120101 0)
(0.199917 0.000201928 0)
(0.198915 0.00053218 0)
(0.197353 0.000801736 0)
(0.195575 0.00101915 0)
(0.193753 0.00119975 0)
(0.199926 0.00060895 0)
(0.198921 0.00162494 0)
(0.197391 0.00243491 0)
(0.195639 0.00309423 0)
(0.193847 0.00364243 0)
(0.19993 0.00102957 0)
(0.198953 0.00274577 0)
(0.197474 0.00410965 0)
(0.195779 0.00522215 0)
(0.194047 0.00614677 0)
(0.199934 0.001452 0)
(0.199008 0.00387478 0)
(0.197606 0.00579695 0)
(0.195997 0.00736453 0)
(0.194357 0.00866596 0)
(0.199939 0.00186682 0)
(0.199082 0.00498692 0)
(0.197784 0.0074604 0)
(0.196291 0.00947542 0)
(0.194775 0.0111454 0)
(0.199945 0.00226346 0)
(0.199175 0.00605486 0)
(0.198004 0.00905986 0)
(0.196655 0.0115045 0)
(0.195289 0.0135258 0)
(0.199953 0.002631 0)
(0.199284 0.00705051 0)
(0.19826 0.0105543 0)
(0.197076 0.0134008 0)
(0.195881 0.0157483 0)
(0.199962 0.00295882 0)
(0.199403 0.00794658 0)
(0.198542 0.0119048 0)
(0.197538 0.015117 0)
(0.196527 0.0177595 0)
(0.199972 0.00323692 0)
(0.199532 0.00871795 0)
(0.198841 0.0130767 0)
(0.198025 0.0166135 0)
(0.1972 0.0195171 0)
(0.199982 0.00345549 0)
(0.199667 0.00934163 0)
(0.199151 0.0140415 0)
(0.198523 0.0178613 0)
(0.197879 0.0209947 0)
(0.199994 0.00360346 0)
(0.199811 0.00979452 0)
(0.199474 0.0147745 0)
(0.199029 0.0188422 0)
(0.198552 0.0221847 0)
(0.200009 0.00366661 0)
(0.199968 0.0100494 0)
(0.199816 0.0152505 0)
(0.199551 0.0195454 0)
(0.199223 0.0230994 0)
(0.200026 0.00362791 0)
(0.200139 0.0100726 0)
(0.200182 0.015437 0)
(0.200099 0.0199614 0)
(0.199906 0.0237773 0)
(0.200036 0.00345622 0)
(0.200298 0.00981428 0)
(0.200529 0.0152801 0)
(0.200645 0.0200517 0)
(0.20058 0.0242454 0)
(0.200079 0.00304009 0)
(0.200401 0.00914036 0)
(0.20072 0.0146451 0)
(0.200995 0.0196657 0)
(0.200932 0.0243222 0)
(0.199237 -0.0346029 0)
(0.197875 -0.0393428 0)
(0.196765 -0.0436174 0)
(0.196069 -0.0473934 -8.58845e-23)
(0.195651 -0.0505811 0)
(0.195456 -0.0531335 0)
(0.195471 -0.0549958 5.28066e-21)
(0.195684 -0.0560849 -5.30673e-21)
(0.19607 -0.0563015 -3.59392e-23)
(0.196568 -0.0555855 -2.389e-21)
(0.197149 -0.0537937 7.02728e-23)
(0.197735 -0.0508404 6.13693e-23)
(0.198248 -0.0467637 1.15339e-21)
(0.198607 -0.0416296 1.10837e-21)
(0.19874 -0.0355764 2.58784e-21)
(0.198594 -0.0288074 -2.58872e-21)
(0.198141 -0.0215741 1.10153e-21)
(0.197383 -0.0141504 1.13048e-21)
(0.196352 -0.00680855 7.73953e-23)
(0.195099 0.000206947 1.04583e-22)
(0.193684 0.00670025 -2.39148e-21)
(0.192186 0.0125552 3.90512e-23)
(0.190688 0.0176635 -5.43332e-21)
(0.189252 0.0219833 5.38524e-21)
(0.187928 0.0255162 0)
(0.186757 0.0282936 0)
(0.18577 0.0303648 9.51116e-23)
(0.184994 0.0317909 0)
(0.184458 0.032645 0)
(0.18413 0.0329724 0)
(0.198528 -0.0375595 0)
(0.197318 -0.0421981 0)
(0.196461 -0.0460838 0)
(0.195929 -0.0494121 8.10964e-23)
(0.195613 -0.052176 0)
(0.195499 -0.0543442 0)
(0.195584 -0.0558559 -3.8678e-21)
(0.195855 -0.0566247 3.92672e-21)
(0.196281 -0.0565603 3.37918e-23)
(0.19681 -0.055606 0)
(0.197402 -0.0536128 0)
(0.19798 -0.050539 2.12509e-21)
(0.198474 -0.0464202 -2.13179e-21)
(0.198806 -0.0413248 0)
(0.198911 -0.035385 7.44986e-21)
(0.198741 -0.0287891 -7.44768e-21)
(0.198273 -0.0217656 0)
(0.197511 -0.0145635 -2.13007e-21)
(0.196484 -0.00742828 2.13823e-21)
(0.195242 -0.000581988 0)
(0.193849 0.00579544 0)
(0.19237 0.0115835 -3.65815e-23)
(0.190875 0.0166858 4.82768e-21)
(0.189431 0.0210569 -4.86938e-21)
(0.188086 0.0246898 0)
(0.18688 0.0276064 0)
(0.18584 0.0298471 -8.94972e-23)
(0.184987 0.0314625 0)
(0.184355 0.0325157 0)
(0.183945 0.0330614 0)
(0.197852 -0.0398472 0)
(0.196919 -0.0440301 0)
(0.196222 -0.0475501 0)
(0.195771 -0.0505924 -2.89297e-21)
(0.195523 -0.0531184 2.92608e-21)
(0.195478 -0.055075 -3.04048e-21)
(0.195631 -0.05639 3.06909e-21)
(0.195967 -0.0569746 -5.68307e-23)
(0.196448 -0.0567469 0)
(0.197027 -0.0556451 0)
(0.197656 -0.0535238 5.70715e-23)
(0.198255 -0.0503681 0)
(0.198755 -0.0462089 0)
(0.199078 -0.0411172 1.77946e-23)
(0.199159 -0.0352234 1.34417e-20)
(0.198954 -0.0287092 -1.34404e-20)
(0.198442 -0.021793 -2.08095e-23)
(0.197631 -0.0147101 0)
(0.196554 -0.00769186 0)
(0.195262 -0.000946862 -9.20913e-23)
(0.193818 0.00535392 0)
(0.192293 0.0110819 0)
(0.190754 0.0161587 8.51558e-23)
(0.189262 0.0205378 6.12697e-21)
(0.187868 0.024209 -6.06988e-21)
(0.18661 0.0271899 6.6779e-21)
(0.185512 0.0295162 -6.6074e-21)
(0.184592 0.0312337 0)
(0.183882 0.0324064 0)
(0.183434 0.0331358 0)
(0.197248 -0.0418945 0)
(0.196509 -0.0457037 4.4524e-21)
(0.195903 -0.0489337 -2.34792e-21)
(0.195519 -0.0517282 -4.43784e-21)
(0.195341 -0.0540303 4.4837e-21)
(0.195369 -0.0557783 -2.23868e-21)
(0.195594 -0.0568969 0)
(0.196003 -0.0572982 -7.21269e-23)
(0.196546 -0.0569119 0)
(0.197189 -0.0556585 0)
(0.197866 -0.0534138 -2.00387e-21)
(0.198501 -0.0501785 1.89957e-21)
(0.199018 -0.04598 0)
(0.199338 -0.0408923 -1.8682e-23)
(0.199396 -0.035044 2.02121e-20)
(0.199147 -0.0286109 -2.02061e-20)
(0.198575 -0.0218015 2.18438e-23)
(0.19769 -0.0148389 0)
(0.196529 -0.00794138 3.27476e-21)
(0.195149 -0.00130546 -3.05263e-21)
(0.193616 0.0049072 -1.13804e-22)
(0.192003 0.0105761 0)
(0.19038 0.0156222 2.36943e-22)
(0.188808 0.0200022 0)
(0.187337 0.0237047 -7.42151e-21)
(0.186005 0.0267442 1.46281e-20)
(0.184837 0.0291519 -1.47953e-20)
(0.183846 0.030968 -7.75556e-21)
(0.183062 0.0322538 1.50581e-20)
(0.182596 0.0331635 0)
(0.196616 -0.0438388 0)
(0.195995 -0.0473289 -2.54493e-21)
(0.195468 -0.0502939 2.53544e-21)
(0.195156 -0.0528487 0)
(0.195052 -0.0549306 0)
(0.195155 -0.0564733 -3.26871e-23)
(0.195456 -0.0573988 0)
(0.19594 -0.0576203 7.58007e-23)
(0.196554 -0.0570768 -1.34445e-21)
(0.197264 -0.0556695 1.32199e-21)
(0.197993 -0.0533036 1.86981e-21)
(0.198667 -0.0499845 -1.82414e-21)
(0.199203 -0.0457408 -6.97903e-23)
(0.19952 -0.040649 4.0124e-23)
(0.199551 -0.0348367 2.77885e-20)
(0.199252 -0.0284745 -2.77799e-20)
(0.198609 -0.0217627 -5.45772e-23)
(0.197636 -0.0149136 1.17061e-22)
(0.196375 -0.00813369 -3.85561e-21)
(0.194885 -0.00160792 3.72111e-21)
(0.19324 0.00451143 4.22678e-21)
(0.191515 0.010111 -4.07822e-21)
(0.189783 0.015115 -2.48316e-22)
(0.188107 0.0194826 0)
(0.186538 0.0232024 2.81024e-22)
(0.185116 0.0262869 0)
(0.183863 0.028764 0)
(0.182791 0.0306687 1.71978e-20)
(0.181928 0.0320572 -1.64101e-20)
(0.181442 0.0331362 0)
(0.195894 -0.0456889 -1.02689e-22)
(0.195352 -0.0488819 3.11575e-22)
(0.194901 -0.0515988 -2.05209e-22)
(0.194664 -0.0539285 0)
(0.194638 -0.0558031 -5.33222e-22)
(0.194818 -0.0571515 5.59935e-22)
(0.195198 -0.0578935 -1.14064e-21)
(0.195758 -0.057944 1.24274e-21)
(0.196444 -0.057246 0)
(0.197219 -0.0556864 7.13174e-23)
(0.198 -0.0532004 -1.75445e-21)
(0.19871 -0.0497931 6.99703e-22)
(0.199262 -0.0454959 -4.44388e-23)
(0.199571 -0.040388 1.22034e-21)
(0.19957 -0.0345968 3.62666e-20)
(0.199216 -0.0282894 -3.62677e-20)
(0.198496 -0.0216595 2.03477e-21)
(0.197429 -0.0149104 -1.13487e-22)
(0.196058 -0.00823821 2.35265e-21)
(0.19445 -0.00181782 -4.43764e-21)
(0.192681 0.00420748 -3.08411e-22)
(0.19083 0.00973098 0)
(0.188975 0.014682 9.8516e-21)
(0.18718 0.0190225 -1.00784e-20)
(0.185499 0.0227424 1.02521e-20)
(0.183972 0.0258532 -9.78557e-21)
(0.182622 0.0283807 -6.38186e-22)
(0.18146 0.0303561 -9.68916e-21)
(0.18051 0.0318304 2.74348e-20)
(0.179992 0.0330584 -1.90502e-20)
(0.195045 -0.0474383 -1.04448e-21)
(0.19456 -0.050354 1.17461e-21)
(0.194184 -0.0528441 8.9423e-22)
(0.194024 -0.0549669 -8.97983e-22)
(0.194075 -0.0566487 3.62483e-22)
(0.194334 -0.0578139 -3.52488e-22)
(0.194793 -0.0583811 -3.0207e-23)
(0.195428 -0.0582692 0)
(0.196186 -0.0574168 -9.14112e-22)
(0.197022 -0.0557072 -4.67546e-22)
(0.197851 -0.0531007 -5.1585e-22)
(0.198591 -0.0496001 1.77755e-21)
(0.199151 -0.0452405 1.25615e-21)
(0.199446 -0.0401043 -2.12422e-21)
(0.199407 -0.0343194 4.64404e-20)
(0.198994 -0.0280505 -4.46406e-20)
(0.198194 -0.0214862 -3.2521e-21)
(0.197029 -0.0148225 2.52075e-21)
(0.195547 -0.0082468 5.10416e-21)
(0.193817 -0.00192501 5.91462e-22)
(0.19192 0.00400782 5.22396e-22)
(0.18994 0.00945169 -5.44882e-21)
(0.187955 0.0143411 0)
(0.186034 0.0186417 -3.99779e-22)
(0.184231 0.0223452 1.06345e-20)
(0.18259 0.0254636 -1.11716e-20)
(0.181134 0.0280216 1.1063e-20)
(0.179873 0.0300477 -1.02466e-20)
(0.178828 0.0315887 -9.59005e-21)
(0.178265 0.032941 1.08964e-20)
(0.19404 -0.0490919 0)
(0.193601 -0.0517538 1.91659e-21)
(0.193298 -0.054039 -2.29273e-21)
(0.193214 -0.0559717 1.7276e-21)
(0.193342 -0.0574728 -1.66926e-21)
(0.19368 -0.058464 7.36491e-22)
(0.194219 -0.0588628 -7.76025e-22)
(0.194923 -0.0585948 -9.90301e-24)
(0.195751 -0.0575847 2.05407e-23)
(0.196642 -0.0557273 4.97461e-23)
(0.197511 -0.0529977 9.26544e-23)
(0.198273 -0.0493975 -6.24385e-23)
(0.198834 -0.0449667 1.4975e-21)
(0.199107 -0.0397907 -5.64889e-22)
(0.199025 -0.0339985 5.5238e-20)
(0.198548 -0.0277535 -5.72418e-20)
(0.197666 -0.0212402 -1.37937e-21)
(0.196403 -0.0146484 2.1782e-21)
(0.194811 -0.0081583 -1.82432e-22)
(0.192961 -0.0019278 -7.41528e-22)
(0.190939 0.00391557 -4.00357e-22)
(0.188829 0.00927828 -4.107e-22)
(0.186714 0.0141001 -8.33165e-22)
(0.184665 0.0183505 1.36861e-20)
(0.182738 0.0220236 -1.35976e-20)
(0.180978 0.0251328 1.27169e-20)
(0.17941 0.0277024 -1.17841e-20)
(0.178043 0.0297596 1.07174e-20)
(0.176899 0.0313481 -1.27945e-20)
(0.176275 0.0327979 0)
(0.192851 -0.0506598 0)
(0.19245 -0.0530913 2.38504e-22)
(0.19222 -0.0551915 -2.61893e-21)
(0.192211 -0.0569481 3.618e-22)
(0.192416 -0.0582784 2.74301e-21)
(0.192832 -0.0591026 9.95158e-23)
(0.193447 -0.0593373 1.0463e-22)
(0.194218 -0.0589154 1.15479e-23)
(0.195109 -0.0577444 2.39473e-23)
(0.196046 -0.05574 -1.25788e-23)
(0.196948 -0.0528826 8.29718e-22)
(0.197723 -0.0491762 -8.34706e-22)
(0.198275 -0.0446653 6.7464e-22)
(0.198519 -0.0394391 -7.60373e-22)
(0.198388 -0.0336278 6.76622e-20)
(0.197843 -0.027394 -6.7672e-20)
(0.196878 -0.0209188 -1.40622e-21)
(0.195519 -0.0143872 1.58011e-21)
(0.19382 -0.00797263 -3.07531e-21)
(0.191855 -0.00182616 4.08401e-21)
(0.189712 0.00393159 -3.22457e-23)
(0.187478 0.0092132 -7.26308e-21)
(0.185237 0.0139635 8.02861e-21)
(0.183062 0.018156 9.45385e-22)
(0.181013 0.0217875 8.72463e-22)
(0.179133 0.0248729 -1.43453e-20)
(0.177452 0.0274372 8.90514e-24)
(0.175976 0.0295072 1.56443e-20)
(0.174729 0.0311248 0)
(0.174032 0.0326458 0)
(0.191449 -0.0521528 0)
(0.191085 -0.0543755 -4.66993e-21)
(0.190926 -0.0563066 3.68429e-22)
(0.190992 -0.0578986 4.60811e-22)
(0.191273 -0.0590657 6.89163e-21)
(0.191764 -0.0597275 -3.32552e-21)
(0.19245 -0.0598017 -1.09384e-22)
(0.193284 -0.0592234 0)
(0.19423 -0.0578886 -2.62868e-22)
(0.195205 -0.0557352 2.02794e-22)
(0.196129 -0.0527448 -8.26961e-22)
(0.196906 -0.0489255 -3.88969e-22)
(0.197441 -0.0443266 1.22705e-21)
(0.197648 -0.0390409 -5.84588e-23)
(0.197462 -0.0332005 8.04447e-20)
(0.196848 -0.0269672 -8.04924e-20)
(0.195799 -0.0205197 9.58373e-23)
(0.194346 -0.0140382 3.42626e-21)
(0.192545 -0.00769054 2.55394e-22)
(0.190471 -0.00162138 -4.58229e-21)
(0.188215 0.00405488 8.44424e-21)
(0.185864 0.00925651 -7.93382e-21)
(0.183505 0.0139332 0)
(0.181211 0.0180622 -9.88146e-22)
(0.179043 0.0216432 1.63379e-20)
(0.177048 0.0246931 -3.32724e-20)
(0.175253 0.0272377 2.39865e-23)
(0.173669 0.0293041 -7.58277e-22)
(0.172318 0.0309338 1.51405e-20)
(0.17154 0.032501 0)
(0.189807 -0.0535809 -8.26671e-22)
(0.189479 -0.0556129 0)
(0.189392 -0.0573879 -3.21512e-22)
(0.189531 -0.0588235 4.60977e-21)
(0.189886 -0.0598324 -5.11534e-21)
(0.190449 -0.0603339 3.52763e-21)
(0.191198 -0.0602495 -3.49384e-21)
(0.192092 -0.0595082 -6.26719e-22)
(0.193081 -0.0580071 6.84796e-22)
(0.194086 -0.0557012 -7.98775e-22)
(0.195022 -0.0525723 7.41237e-22)
(0.195791 -0.0486337 -1.2859e-21)
(0.196299 -0.0439398 4.14877e-22)
(0.196462 -0.0385872 1.49791e-21)
(0.196217 -0.0327096 9.40279e-20)
(0.195529 -0.0264687 -9.53242e-20)
(0.194398 -0.0200406 2.41876e-21)
(0.192855 -0.0136013 2.0831e-21)
(0.190957 -0.00731353 -3.80223e-21)
(0.188782 -0.00131597 9.67469e-21)
(0.186421 0.00428272 9.4798e-22)
(0.183963 0.00940605 -1.68494e-20)
(0.181494 0.0140082 9.02886e-21)
(0.17909 0.01807 1.8459e-20)
(0.176811 0.0215941 -1.82033e-20)
(0.174706 0.0245992 1.79809e-20)
(0.172802 0.0271122 -1.89188e-20)
(0.171112 0.0291609 1.12756e-21)
(0.169659 0.0307877 0)
(0.168794 0.032379 -1.96884e-21)
(0.187895 -0.0549525 8.59818e-22)
(0.187604 -0.0568081 -7.57936e-21)
(0.187587 -0.0584357 7.22696e-21)
(0.187798 -0.0597204 3.78672e-22)
(0.188224 -0.0605732 3.39628e-22)
(0.188857 -0.0609138 0)
(0.189662 -0.0606702 -2.64977e-22)
(0.190608 -0.059758 -1.14718e-21)
(0.191633 -0.0580883 1.15385e-21)
(0.192657 -0.0556247 -1.68578e-22)
(0.193594 -0.0523517 7.70001e-23)
(0.194345 -0.048288 -1.36222e-21)
(0.194818 -0.0434934 1.36954e-21)
(0.194929 -0.0380681 6.92732e-23)
(0.19462 -0.0321477 1.10075e-19)
(0.193858 -0.0258935 -1.10022e-19)
(0.192645 -0.0194791 -1.17778e-22)
(0.191015 -0.0130766 4.25111e-21)
(0.189027 -0.00684355 -4.22821e-21)
(0.186759 -0.000913205 -5.68057e-22)
(0.184303 0.00461116 9.38303e-21)
(0.181748 0.00965794 -2.06846e-20)
(0.17918 0.0141854 8.76037e-21)
(0.176675 0.0181779 -1.32795e-21)
(0.174295 0.0216404 0)
(0.172087 0.0245937 1.21973e-21)
(0.170082 0.0270659 1.19831e-21)
(0.168291 0.0290855 -1.91006e-20)
(0.166739 0.0306966 1.76136e-20)
(0.165786 0.0322928 2.04748e-21)
(0.18568 -0.0562731 0)
(0.185427 -0.0579623 -7.52852e-23)
(0.18548 -0.0594477 8.15453e-21)
(0.185762 -0.0605835 -8.31429e-21)
(0.186257 -0.06128 -6.63984e-21)
(0.186951 -0.0614578 9.7346e-21)
(0.187809 -0.0610494 -2.46249e-21)
(0.188799 -0.0599592 -4.00688e-23)
(0.189849 -0.0581171 -1.26934e-22)
(0.190883 -0.0554902 0)
(0.191811 -0.0520678 8.61971e-22)
(0.192535 -0.0478745 -2.31934e-21)
(0.192964 -0.0429751 1.45915e-21)
(0.193017 -0.0374736 -7.24867e-23)
(0.192639 -0.0315072 1.27149e-19)
(0.191802 -0.0252366 -1.27204e-19)
(0.19051 -0.0188329 1.23245e-22)
(0.188797 -0.0124641 4.71855e-21)
(0.186725 -0.00628283 -9.76549e-21)
(0.184374 -0.000416941 5.03599e-21)
(0.181832 0.00503535 0)
(0.179191 0.010007 -1.44704e-21)
(0.176536 0.0144601 -9.1924e-23)
(0.173942 0.0183819 1.28823e-20)
(0.17147 0.0217799 -3.26578e-20)
(0.169169 0.0246765 2.24283e-20)
(0.16707 0.0271007 2.20409e-20)
(0.165184 0.0290822 -2.29275e-20)
(0.163539 0.0306671 -8.76008e-23)
(0.162498 0.0322527 0)
(0.183125 -0.0575446 0)
(0.182913 -0.0590728 -9.46366e-21)
(0.183035 -0.0604174 1.02912e-20)
(0.183388 -0.0614037 8.25178e-21)
(0.183948 -0.0619408 -9.02036e-21)
(0.184698 -0.0619527 -3.68377e-21)
(0.185605 -0.0613701 8.16334e-22)
(0.186628 -0.0600954 2.84442e-21)
(0.187696 -0.058076 2.9568e-22)
(0.188729 -0.0552806 0)
(0.189637 -0.0517042 0)
(0.190325 -0.047378 1.39893e-21)
(0.190701 -0.0423718 -1.68286e-21)
(0.190692 -0.0367929 0)
(0.190242 -0.03078 1.45902e-19)
(0.189329 -0.0244928 -1.45906e-19)
(0.187958 -0.0180996 0)
(0.186168 -0.0117641 -4.9067e-21)
(0.18402 -0.00563382 5.89632e-21)
(0.181594 0.000168532 0)
(0.178979 0.00554971 0)
(0.176263 0.0104469 3.11633e-21)
(0.173532 0.0148258 -1.12417e-20)
(0.17086 0.0186762 -1.97949e-22)
(0.168308 0.0220078 1.10449e-20)
(0.165925 0.0248444 2.49873e-20)
(0.16374 0.0272157 -2.61035e-20)
(0.161767 0.0291523 -2.36951e-20)
(0.160037 0.0307027 2.4584e-20)
(0.158911 0.0322653 0)
(0.180191 -0.0587649 0)
(0.180023 -0.0601311 0)
(0.180214 -0.0613343 0)
(0.180635 -0.0621677 -9.69722e-21)
(0.181258 -0.0625398 5.21219e-21)
(0.182058 -0.0623811 5.14103e-21)
(0.183008 -0.061612 4.63943e-22)
(0.184056 -0.0601479 2.02261e-21)
(0.185132 -0.0579452 -1.15912e-21)
(0.186155 -0.0549763 -8.7158e-22)
(0.187034 -0.051243 6.88868e-23)
(0.187676 -0.0467824 3.24156e-22)
(0.187993 -0.0416695 1.47385e-21)
(0.187915 -0.0360148 -1.1314e-21)
(0.187391 -0.0299577 1.66409e-19)
(0.186402 -0.0236566 -1.66403e-19)
(0.184957 -0.0172766 -2.78102e-21)
(0.183095 -0.0109768 1.91964e-21)
(0.180879 -0.00489926 -1.50455e-21)
(0.178388 0.000838443 -8.25341e-22)
(0.175709 0.00614793 1.36832e-20)
(0.172931 0.0109705 6.03235e-22)
(0.170137 0.0152749 -1.38172e-20)
(0.167399 0.0190534 1.82153e-21)
(0.164779 0.0223175 -1.22585e-20)
(0.162323 0.0250918 -1.57075e-20)
(0.160062 0.0274068 2.88238e-20)
(0.158011 0.0292938 0)
(0.156202 0.0308036 0)
(0.154998 0.0323339 0)
(0.176832 -0.0599242 -1.36871e-20)
(0.176711 -0.0611258 1.44606e-20)
(0.176972 -0.0621835 0)
(0.17746 -0.0628581 -5.95881e-21)
(0.178142 -0.063058 6.6706e-21)
(0.178989 -0.0627188 4.48353e-21)
(0.179974 -0.0617526 -5.60686e-21)
(0.181039 -0.0600937 0)
(0.182114 -0.057702 -2.09479e-22)
(0.183117 -0.0545559 0)
(0.183957 -0.050664 -2.6139e-24)
(0.184545 -0.0460699 4.44264e-24)
(0.184798 -0.0408532 -2.79295e-22)
(0.184646 -0.0351272 -1.93319e-22)
(0.184047 -0.0290315 1.89034e-19)
(0.182983 -0.0227226 -1.89054e-19)
(0.181467 -0.0163616 3.41322e-22)
(0.17954 -0.0101026 7.63249e-22)
(0.177265 -0.0040823 -4.85036e-23)
(0.174719 0.0015874 -5.26974e-23)
(0.171989 0.00682283 0)
(0.169161 0.0115692 -1.85343e-21)
(0.166315 0.0157981 0)
(0.163524 0.0195042 1.18068e-20)
(0.160847 0.0226998 -1.53057e-20)
(0.158331 0.0254106 -1.35011e-20)
(0.156004 0.0276672 1.5038e-20)
(0.153884 0.0295014 0)
(0.152004 0.0309663 -2.50718e-20)
(0.150726 0.0324578 2.70737e-20)
(0.172997 -0.0610075 0)
(0.172926 -0.0620391 9.51413e-23)
(0.173258 -0.0629445 1.5735e-20)
(0.173813 -0.0634511 -1.48952e-20)
(0.174548 -0.0634708 8.40884e-22)
(0.175441 -0.0629373 -1.41836e-21)
(0.176454 -0.0617656 5.61063e-22)
(0.177528 -0.0599057 0)
(0.178593 -0.0573202 0)
(0.179566 -0.0539948 0)
(0.180359 -0.0499451 -7.19793e-23)
(0.180886 -0.0452211 1.76131e-21)
(0.181067 -0.0399068 -3.25658e-21)
(0.180839 -0.0341173 2.51783e-21)
(0.180163 -0.0279921 2.12661e-19)
(0.179027 -0.0216849 -2.15051e-19)
(0.177446 -0.0153522 4.40818e-21)
(0.175461 -0.00914264 -1.06395e-20)
(0.173136 -0.00318674 7.89462e-21)
(0.170547 0.0024091 9.49841e-22)
(0.167778 0.00756609 1.05649e-21)
(0.164912 0.0122332 0)
(0.162029 0.0163848 0)
(0.159197 0.020017 2.09185e-21)
(0.156475 0.0231434 -4.30281e-21)
(0.15391 0.0257899 2.19475e-21)
(0.151528 0.027987 3.32855e-20)
(0.149347 0.0297666 -3.04075e-20)
(0.147405 0.0311838 1.34062e-22)
(0.14606 0.032632 0)
(0.168627 -0.0619908 -1.74693e-20)
(0.168609 -0.0628482 1.62249e-20)
(0.169014 -0.0635899 7.30229e-21)
(0.169636 -0.0639168 -8.45686e-21)
(0.170424 -0.063746 -7.64205e-21)
(0.171357 -0.063003 7.78562e-21)
(0.17239 -0.0616198 4.6659e-21)
(0.173466 -0.0595526 -4.22307e-21)
(0.174512 -0.05677 9.73138e-22)
(0.175446 -0.0532653 -8.20193e-22)
(0.176184 -0.0490617 -1.14504e-21)
(0.176642 -0.0442147 3.26136e-23)
(0.176747 -0.0388124 8.9121e-22)
(0.17644 -0.0329714 -1.18822e-22)
(0.175689 -0.0268298 2.40406e-19)
(0.174483 -0.0205377 -2.40435e-19)
(0.172843 -0.0142466 2.13071e-22)
(0.170809 -0.00809836 4.36631e-21)
(0.168445 -0.00221736 4.53867e-21)
(0.165825 0.00329599 -8.31283e-21)
(0.16303 0.00836781 8.14627e-21)
(0.160141 0.0129507 -7.90489e-21)
(0.157233 0.0170217 2.1628e-20)
(0.154374 0.0205781 -1.88244e-20)
(0.151621 0.0236342 -1.67546e-20)
(0.149017 0.0262158 1.63708e-20)
(0.146591 0.0283527 1.83836e-20)
(0.144359 0.0300769 -2.01044e-20)
(0.142362 0.0314451 -3.4917e-20)
(0.140956 0.0328475 3.31463e-20)
(0.163654 -0.0628442 -1.26193e-21)
(0.163691 -0.0635193 -1.93545e-20)
(0.164172 -0.064083 2.13321e-20)
(0.16486 -0.0642178 0)
(0.165701 -0.0638416 -1.08442e-21)
(0.16667 -0.0628777 0)
(0.167718 -0.0612762 -7.96862e-22)
(0.168788 -0.058997 3.76131e-21)
(0.169806 -0.0560164 -3.94398e-21)
(0.170693 -0.0523358 6.42487e-23)
(0.171368 -0.0479855 1.46407e-22)
(0.171751 -0.0430267 2.18277e-22)
(0.171775 -0.0375507 1.75551e-22)
(0.171388 -0.0316747 1.23333e-22)
(0.170562 -0.0255344 2.69397e-19)
(0.169293 -0.0192756 -2.69413e-19)
(0.1676 -0.0130432 -2.21161e-22)
(0.165528 -0.00697247 -4.95504e-22)
(0.163136 -0.00118046 1.14868e-21)
(0.160499 0.00423857 0)
(0.157692 0.00921579 1.28615e-21)
(0.154794 0.0137075 1.96515e-20)
(0.151877 0.0176927 -2.03577e-20)
(0.149005 0.0211702 -2.71893e-21)
(0.146233 0.0241543 0)
(0.143603 0.0266701 -2.67629e-21)
(0.141143 0.0287467 0)
(0.13887 0.0304155 -3.65649e-20)
(0.136826 0.0317342 3.80864e-20)
(0.135366 0.0330897 -2.2878e-21)
(0.157994 -0.0635266 -2.07267e-20)
(0.158094 -0.0640058 2.17227e-20)
(0.158654 -0.0643754 1.27323e-22)
(0.159409 -0.0643062 1.09501e-20)
(0.160304 -0.0637068 -1.75248e-20)
(0.161303 -0.0625143 1.0014e-20)
(0.16236 -0.0606883 8.20271e-22)
(0.163416 -0.0581948 6.02091e-23)
(0.164397 -0.0550186 0)
(0.165229 -0.0511693 -6.63507e-23)
(0.165832 -0.0466843 1.0603e-21)
(0.166134 -0.04163 -1.44953e-21)
(0.166074 -0.0360999 -2.01197e-22)
(0.165608 -0.0302108 1.1208e-21)
(0.16471 -0.0240952 2.9946e-19)
(0.163383 -0.017893 -3.02589e-19)
(0.161647 -0.0117419 2.11669e-21)
(0.159548 -0.00576928 5.78818e-22)
(0.157144 -8.45726e-05 -1.13692e-20)
(0.154504 0.00522459 1.00645e-20)
(0.151702 0.0100946 -1.3282e-21)
(0.148811 0.0144852 0)
(0.145901 0.0183778 -2.78469e-21)
(0.143031 0.0217716 2.79877e-21)
(0.140254 0.0246808 -2.01736e-20)
(0.137611 0.0271297 4.81689e-20)
(0.135128 0.0291458 -1.93369e-20)
(0.132823 0.0307595 2.01528e-22)
(0.130741 0.0320292 -3.996e-20)
(0.129232 0.0333375 4.27687e-20)
(0.151551 -0.0639801 0)
(0.151722 -0.0642469 0)
(0.152366 -0.0644077 -1.30838e-20)
(0.153192 -0.0641178 1.06752e-20)
(0.154138 -0.0632815 0)
(0.155164 -0.0618536 -1.1061e-21)
(0.156223 -0.0597991 -1.0074e-21)
(0.157256 -0.0570924 -6.99842e-22)
(0.158192 -0.0537274 0)
(0.158959 -0.0497221 0)
(0.159484 -0.0451205 7.65519e-23)
(0.1597 -0.0399933 -1.46747e-21)
(0.159554 -0.0344356 1.77981e-21)
(0.159008 -0.0285622 1.47103e-22)
(0.158045 -0.0225011 3.34616e-19)
(0.156667 -0.0163852 -3.34756e-19)
(0.1549 -0.0103439 -2.66181e-22)
(0.152788 -0.00449561 3.93997e-21)
(0.150386 0.00105843 -5.125e-21)
(0.147761 0.00623768 0)
(0.144982 0.0109839 0)
(0.142118 0.0152604 0)
(0.139232 0.0190505 0)
(0.136381 0.0223539 -3.29916e-21)
(0.133615 0.0251841 -3.05871e-21)
(0.130973 0.0275639 0)
(0.128479 0.0295188 -2.75605e-20)
(0.126152 0.0310779 2.10167e-20)
(0.124039 0.0322996 0)
(0.122488 0.0335614 0)
(0.144207 -0.064127 -1.76394e-21)
(0.14446 -0.0641639 0)
(0.145193 -0.0641007 0)
(0.146094 -0.0635702 0)
(0.147089 -0.0624889 0)
(0.148137 -0.0608202 0)
(0.149192 -0.058537 1.02888e-21)
(0.150193 -0.0556237 4.31185e-22)
(0.151075 -0.0520832 -1.45063e-21)
(0.151768 -0.0479416 1.49023e-21)
(0.152207 -0.0432493 -1.34561e-21)
(0.152333 -0.0380803 2.96551e-21)
(0.1521 -0.0325297 7.84763e-22)
(0.151478 -0.0267092 -2.25221e-21)
(0.150454 -0.0207407 3.7087e-19)
(0.149037 -0.0147488 -3.70922e-19)
(0.147253 -0.00885305 -5.11651e-21)
(0.145144 -0.00316215 -6.34604e-22)
(0.142764 0.00223167 1.78861e-20)
(0.140174 0.00725542 -2.34812e-20)
(0.137439 0.0118564 9.68034e-22)
(0.134621 0.0160017 1.32894e-20)
(0.13178 0.0196761 1.80131e-21)
(0.128968 0.0228795 3.36945e-21)
(0.12623 0.0256243 0)
(0.123604 0.0279314 0)
(0.121113 0.0298237 0)
(0.118776 0.0313285 0)
(0.116641 0.0325033 0)
(0.115053 0.0337193 -3.10484e-21)
(0.135818 -0.0638614 3.75796e-21)
(0.136167 -0.0636513 -1.50349e-20)
(0.136998 -0.0633435 1.56406e-20)
(0.137975 -0.0625594 0)
(0.139017 -0.0612271 -1.21197e-20)
(0.140081 -0.0593167 1.39825e-20)
(0.141122 -0.0568113 -9.00415e-21)
(0.142081 -0.0537053 7.66044e-21)
(0.142897 -0.0500114 0)
(0.143508 -0.0457634 4.94497e-23)
(0.143854 -0.0410167 -1.53153e-21)
(0.143886 -0.0358476 3.03674e-21)
(0.143567 -0.0303498 -1.82934e-21)
(0.142872 -0.0246303 -1.64522e-21)
(0.141798 -0.018803 4.10962e-19)
(0.140355 -0.0129824 -4.0679e-19)
(0.138571 -0.00727737 -2.43827e-21)
(0.136485 -0.00178553 -5.4922e-21)
(0.13415 0.00341068 1.95713e-20)
(0.13162 0.00824627 1.11583e-21)
(0.128953 0.0126744 -1.57433e-20)
(0.126206 0.0166657 -1.94006e-21)
(0.123433 0.0202065 -3.46566e-20)
(0.120682 0.0232965 2.81034e-20)
(0.117994 0.0259465 -2.67337e-20)
(0.115403 0.028175 2.98431e-20)
(0.11293 0.0300019 0)
(0.110596 0.0314518 -2.86217e-20)
(0.10845 0.0325806 2.77108e-20)
(0.106831 0.0337516 6.57602e-21)
(0.126203 -0.0630338 1.28934e-20)
(0.126664 -0.0625587 -1.67538e-20)
(0.127601 -0.0619886 -1.40372e-20)
(0.128653 -0.0609445 1.68492e-20)
(0.129736 -0.0593598 1.53974e-20)
(0.130808 -0.0572144 -2.86747e-20)
(0.131824 -0.0545027 1.79134e-20)
(0.132729 -0.0512298 -4.29748e-21)
(0.133468 -0.0474173 0)
(0.133986 -0.0431061 -2.33362e-22)
(0.134233 -0.0383558 3.16403e-22)
(0.134168 -0.033243 1.58796e-22)
(0.133764 -0.0278583 1.31888e-21)
(0.133006 -0.0223017 -2.22361e-21)
(0.131894 -0.0166776 4.50334e-19)
(0.130442 -0.0110889 -4.48119e-19)
(0.128679 -0.00563171 -4.38034e-21)
(0.126643 -0.000391763 3.02838e-21)
(0.124379 0.00455918 -9.15398e-22)
(0.121937 0.00916467 -1.93236e-20)
(0.119368 0.0133839 1.73283e-20)
(0.116723 0.0171911 4.08801e-21)
(0.114047 0.0205739 1.88634e-20)
(0.111384 0.0235316 -4.60618e-20)
(0.10877 0.0260729 5.81356e-20)
(0.106237 0.0282134 -2.831e-20)
(0.103804 0.0299694 -3.25176e-20)
(0.101489 0.0313621 3.14769e-20)
(0.0993452 0.0324447 2.92449e-20)
(0.0977024 0.0335705 -3.70463e-20)
(0.115132 -0.0614264 2.14345e-20)
(0.11572 -0.0606694 2.55822e-21)
(0.116763 -0.0598309 -3.59737e-21)
(0.117887 -0.0585262 -1.87616e-20)
(0.119003 -0.056698 -1.92163e-21)
(0.120069 -0.0543376 2.63167e-21)
(0.121045 -0.0514511 8.06261e-23)
(0.121881 -0.0480541 0)
(0.122529 -0.0441766 0)
(0.122943 -0.0398653 -3.17249e-22)
(0.123085 -0.0351821 2.44e-22)
(0.122923 -0.030202 -1.59928e-22)
(0.12244 -0.0250104 0)
(0.121629 -0.0196981 -7.49596e-22)
(0.120497 -0.0143576 4.92563e-19)
(0.11906 -0.00907826 -4.9019e-19)
(0.117346 -0.0039423 -1.84955e-21)
(0.11539 0.000977951 0)
(0.113232 0.00562216 9.2192e-22)
(0.110914 0.00994293 -1.4961e-20)
(0.108481 0.0139058 1.45458e-20)
(0.105973 0.0174884 -2.1333e-21)
(0.10343 0.0206797 0)
(0.100889 0.023478 2.01429e-22)
(0.0983828 0.0258898 6.74151e-21)
(0.0959368 0.027927 -4.30833e-21)
(0.0935691 0.0296019 3.55689e-20)
(0.0912969 0.0309317 -2.84314e-23)
(0.0891737 0.031966 3.26481e-21)
(0.0875194 0.033044 -2.89697e-20)
(0.102292 -0.0587078 -2.15698e-20)
(0.103017 -0.0576692 1.85212e-20)
(0.104162 -0.056565 0)
(0.105345 -0.0550142 -1.72643e-20)
(0.106476 -0.0529707 2.0423e-20)
(0.107516 -0.0504378 -8.06319e-21)
(0.10843 -0.0474332 1.23201e-20)
(0.109178 -0.043982 -5.24105e-21)
(0.10972 -0.0401215 0)
(0.11002 -0.0359022 0)
(0.110051 -0.0313861 -8.88912e-22)
(0.109795 -0.0266441 1.04685e-21)
(0.109244 -0.0217535 0)
(0.108399 -0.0167935 -2.20092e-22)
(0.107271 -0.0118425 5.34783e-19)
(0.10588 -0.00697404 -5.34824e-19)
(0.104252 -0.00225493 4.05203e-22)
(0.102417 0.00225699 0)
(0.100408 0.00651368 7.56552e-21)
(0.0982612 0.0104772 -7.34759e-21)
(0.0960095 0.0141197 0)
(0.0936865 0.0174223 0)
(0.0913238 0.0203749 2.25745e-20)
(0.0889505 0.0229746 -4.18785e-20)
(0.0865935 0.0252251 1.71132e-20)
(0.0842751 0.0271343 -3.69392e-20)
(0.0820097 0.02871 4.07754e-20)
(0.0798134 0.0299648 0)
(0.077739 0.0309433 -3.95245e-20)
(0.0760924 0.0319663 3.13594e-20)
(0.0872481 -0.0543548 -2.27123e-20)
(0.0881066 -0.0530575 2.20793e-20)
(0.0893309 -0.0517161 -2.24974e-20)
(0.0905426 -0.0499651 1.33944e-21)
(0.0916567 -0.0477709 1.79079e-21)
(0.0926393 -0.0451483 2.81161e-20)
(0.0934633 -0.0421249 -8.14884e-21)
(0.0940979 -0.0387338 -6.63045e-22)
(0.0945145 -0.0350175 2.6517e-21)
(0.0946908 -0.0310274 -3.22016e-21)
(0.0946122 -0.0268226 5.13279e-22)
(0.0942721 -0.0224671 -2.27401e-21)
(0.0936722 -0.0180265 3.77747e-21)
(0.0928216 -0.0135659 -2.8011e-21)
(0.091736 -0.00914673 5.80136e-19)
(0.0904354 -0.00482517 -5.77291e-19)
(0.0889433 -0.000650811 -5.5639e-21)
(0.0872844 0.00333396 1.24628e-20)
(0.0854844 0.00709406 -7.43483e-21)
(0.0835684 0.0106015 -1.97247e-20)
(0.0815609 0.0138349 4.01506e-20)
(0.0794856 0.016779 -2.02244e-20)
(0.077365 0.0194244 -2.53537e-21)