/*--------------------------------*- C++ -*----------------------------------*\
  =========                 |
  \\      /  F ield         | OpenFOAM: The Open Source CFD Toolbox
   \\    /   O peration     | Website:  https://openfoam.org
    \\  /    A nd           | Version:  12
     \\/     M anipulation  |
\*---------------------------------------------------------------------------*/
FoamFile
{
    format      ascii;
    class       volSymmTensorField;
    location    "140";
    object      UPrime2Mean;
}
// * * * * * * * * * * * * * * * * * * * * * * * * * * * * * * * * * * * * * //

dimensions      [0 2 -2 0 0 0 0];

internalField   nonuniform List<symmTensor> 
6750
(
(3.95009e-10 6.41725e-09 0 1.90086e-07 0 0)
(9.23982e-09 1.19558e-07 0 2.6088e-06 0 0)
(2.99641e-08 3.97222e-07 0 8.22448e-06 0 0)
(5.55602e-08 7.98841e-07 0 1.6999e-05 0 0)
(1.34144e-07 1.71869e-06 0 2.8579e-05 0 0)
(4.45635e-11 7.30309e-10 0 1.46145e-07 0 0)
(1.68168e-09 5.04026e-08 0 2.21681e-06 0 0)
(1.16894e-08 2.45705e-07 0 7.11827e-06 0 0)
(4.07121e-08 6.80596e-07 0 1.46675e-05 0 0)
(1.09496e-07 1.47677e-06 0 2.43267e-05 0 0)
(3.6681e-11 7.94413e-10 0 1.33096e-07 0 0)
(1.47316e-09 5.14916e-08 0 2.0298e-06 0 0)
(1.2841e-08 2.71887e-07 0 6.43867e-06 0 0)
(4.97859e-08 7.62969e-07 0 1.29875e-05 0 0)
(1.28968e-07 1.56219e-06 0 2.09359e-05 0 0)
(3.09789e-11 7.26949e-10 0 1.16487e-07 0 0)
(2.23952e-09 6.19284e-08 0 1.79878e-06 0 0)
(1.84322e-08 3.16175e-07 0 5.65377e-06 0 0)
(6.65222e-08 8.46451e-07 0 1.12534e-05 0 0)
(1.58632e-07 1.64539e-06 0 1.7897e-05 0 0)
(2.30519e-11 5.57257e-10 0 9.78498e-08 0 0)
(3.07325e-09 6.80454e-08 0 1.54343e-06 0 0)
(2.46638e-08 3.4255e-07 0 4.84052e-06 0 0)
(8.48306e-08 8.93096e-07 0 9.57598e-06 0 0)
(1.92754e-07 1.69092e-06 0 1.51405e-05 0 0)
(1.46138e-11 3.08861e-10 0 7.95149e-08 0 0)
(3.72676e-09 6.88238e-08 0 1.2856e-06 0 0)
(3.04461e-08 3.49588e-07 0 4.0405e-06 0 0)
(1.0327e-07 9.04668e-07 0 7.97745e-06 0 0)
(2.30758e-07 1.69783e-06 0 1.25836e-05 0 0)
(9.93014e-12 5.81054e-11 0 6.26955e-08 0 0)
(4.22335e-09 6.60505e-08 0 1.03842e-06 0 0)
(3.58843e-08 3.42597e-07 0 3.27702e-06 0 0)
(1.22318e-07 8.88918e-07 0 6.47055e-06 0 0)
(2.73328e-07 1.66825e-06 0 1.01994e-05 0 0)
(1.13901e-11 -1.41718e-10 0 4.78591e-08 0 0)
(4.64464e-09 6.11933e-08 0 8.09754e-07 0 0)
(4.12438e-08 3.25263e-07 0 2.56717e-06 0 0)
(1.42299e-07 8.49507e-07 0 5.07371e-06 0 0)
(3.20192e-07 1.59999e-06 0 7.99758e-06 0 0)
(1.91744e-11 -2.72178e-10 0 3.51213e-08 0 0)
(5.04109e-09 5.50072e-08 0 6.04872e-07 0 0)
(4.65798e-08 2.99236e-07 0 1.926e-06 0 0)
(1.62822e-07 7.87215e-07 0 3.81115e-06 0 0)
(3.69579e-07 1.4894e-06 0 6.0091e-06 0 0)
(3.18555e-11 -3.35021e-10 0 2.44714e-08 0 0)
(5.42465e-09 4.78312e-08 0 4.27574e-07 0 0)
(5.17426e-08 2.65376e-07 0 1.36671e-06 0 0)
(1.82925e-07 7.02646e-07 0 2.70766e-06 0 0)
(4.18636e-07 1.33512e-06 0 4.27069e-06 0 0)
(4.70591e-11 -3.40871e-10 0 1.58641e-08 0 0)
(5.78234e-09 3.98579e-08 0 2.805e-07 0 0)
(5.64744e-08 2.24646e-07 0 8.99655e-07 0 0)
(2.01384e-07 5.97837e-07 0 1.78429e-06 0 0)
(4.64024e-07 1.14005e-06 0 2.81525e-06 0 0)
(6.21818e-11 -3.02843e-10 0 9.23615e-09 0 0)
(6.08746e-09 3.12657e-08 0 1.65044e-07 0 0)
(6.04871e-08 1.78413e-07 0 5.3109e-07 0 0)
(2.17026e-07 4.7661e-07 0 1.05437e-06 0 0)
(5.02668e-07 9.11398e-07 0 1.66409e-06 0 0)
(7.45371e-11 -2.31952e-10 0 4.49738e-09 0 0)
(6.305e-09 2.2269e-08 0 8.12843e-08 0 0)
(6.35293e-08 1.28446e-07 0 2.62585e-07 0 0)
(2.28938e-07 3.44107e-07 0 5.21808e-07 0 0)
(5.32285e-07 6.59369e-07 0 8.23759e-07 0 0)
(7.96989e-11 -1.34375e-10 0 1.52122e-09 0 0)
(6.38326e-09 1.31285e-08 0 2.80258e-08 0 0)
(6.54265e-08 7.67316e-08 0 9.11001e-08 0 0)
(2.36602e-07 2.06048e-07 0 1.81198e-07 0 0)
(5.51648e-07 3.95429e-07 0 2.86115e-07 0 0)
(6.9244e-11 -3.42248e-11 0 1.6401e-10 0 0)
(6.20393e-09 4.16335e-09 0 2.91662e-09 0 0)
(6.61318e-08 2.51954e-08 0 9.72187e-09 0 0)
(2.40027e-07 6.79562e-08 0 1.94259e-08 0 0)
(5.60728e-07 1.30676e-07 0 3.07327e-08 0 0)
(6.93127e-11 2.63661e-11 0 2.05979e-10 0 0)
(6.2051e-09 -4.29755e-09 0 3.10802e-09 0 0)
(6.61297e-08 -2.5637e-08 0 1.00918e-08 0 0)
(2.4002e-07 -6.87224e-08 0 1.9923e-08 0 0)
(5.60707e-07 -1.31723e-07 0 3.13152e-08 0 0)
(7.95234e-11 1.28765e-10 0 1.64766e-09 0 0)
(6.38049e-09 -1.32632e-08 0 2.8617e-08 0 0)
(6.54169e-08 -7.71679e-08 0 9.22265e-08 0 0)
(2.36576e-07 -2.068e-07 0 1.82707e-07 0 0)
(5.51581e-07 -3.96447e-07 0 2.8788e-07 0 0)
(7.41863e-11 2.28336e-10 0 4.70943e-09 0 0)
(6.29946e-09 -2.2396e-08 0 8.22865e-08 0 0)
(6.35118e-08 -1.28865e-07 0 2.64488e-07 0 0)
(2.28891e-07 -3.44823e-07 0 5.24349e-07 0 0)
(5.32172e-07 -6.60322e-07 0 8.26724e-07 0 0)
(6.17628e-11 3.01819e-10 0 9.52922e-09 0 0)
(6.07992e-09 -3.13795e-08 0 1.6646e-07 0 0)
(6.04635e-08 -1.78802e-07 0 5.33775e-07 0 0)
(2.16965e-07 -4.77273e-07 0 1.05795e-06 0 0)
(5.02516e-07 -9.12253e-07 0 1.66824e-06 0 0)
(4.66748e-11 3.43023e-10 0 1.62298e-08 0 0)
(5.77394e-09 -3.99548e-08 0 2.82325e-07 0 0)
(5.64484e-08 -2.24999e-07 0 9.03114e-07 0 0)
(2.01316e-07 -5.98433e-07 0 1.78887e-06 0 0)
(4.63839e-07 -1.14078e-06 0 2.82054e-06 0 0)
(3.16201e-11 3.40507e-10 0 2.48984e-08 0 0)
(5.41643e-09 -4.79087e-08 0 4.29799e-07 0 0)
(5.1717e-08 -2.6569e-07 0 1.37093e-06 0 0)
(1.82854e-07 -7.03166e-07 0 2.71321e-06 0 0)
(4.18419e-07 -1.33568e-06 0 4.27705e-06 0 0)
(1.91978e-11 2.80896e-10 0 3.55953e-08 0 0)
(5.03298e-09 -5.50588e-08 0 6.07477e-07 0 0)
(4.65512e-08 -2.99491e-07 0 1.93095e-06 0 0)
(1.62746e-07 -7.87633e-07 0 3.81756e-06 0 0)
(3.69347e-07 -1.48976e-06 0 6.01626e-06 0 0)
(1.17376e-11 1.53537e-10 0 4.83624e-08 0 0)
(4.63504e-09 -6.12016e-08 0 8.12692e-07 0 0)
(4.12024e-08 -3.25404e-07 0 2.5728e-06 0 0)
(1.42198e-07 -8.49742e-07 0 5.08089e-06 0 0)
(3.19949e-07 -1.60016e-06 0 8.00537e-06 0 0)
(1.058e-11 -4.4144e-11 0 6.32079e-08 0 0)
(4.21313e-09 -6.60134e-08 0 1.04161e-06 0 0)
(3.58355e-08 -3.42621e-07 0 3.28326e-06 0 0)
(1.22216e-07 -8.89039e-07 0 6.47875e-06 0 0)
(2.73091e-07 -1.66834e-06 0 1.02089e-05 0 0)
(1.54977e-11 -2.94829e-10 0 8.00202e-08 0 0)
(3.7185e-09 -6.87612e-08 0 1.28899e-06 0 0)
(3.04066e-08 -3.49572e-07 0 4.04729e-06 0 0)
(1.03202e-07 -9.0483e-07 0 7.98669e-06 0 0)
(2.30565e-07 -1.69798e-06 0 1.25947e-05 0 0)
(2.40473e-11 -5.44203e-10 0 9.83382e-08 0 0)
(3.06672e-09 -6.79615e-08 0 1.54697e-06 0 0)
(2.46313e-08 -3.42497e-07 0 4.84795e-06 0 0)
(8.47754e-08 -8.93252e-07 0 9.58657e-06 0 0)
(1.92574e-07 -1.69103e-06 0 1.51539e-05 0 0)
(3.19154e-11 -7.16122e-10 0 1.16951e-07 0 0)
(2.23458e-09 -6.18332e-08 0 1.80242e-06 0 0)
(1.84065e-08 -3.16103e-07 0 5.66177e-06 0 0)
(6.64801e-08 -8.46652e-07 0 1.12656e-05 0 0)
(1.58461e-07 -1.64543e-06 0 1.79131e-05 0 0)
(3.73331e-11 -7.86041e-10 0 1.33535e-07 0 0)
(1.46828e-09 -5.13875e-08 0 2.03348e-06 0 0)
(1.28176e-08 -2.71792e-07 0 6.44718e-06 0 0)
(4.97367e-08 -7.63081e-07 0 1.30013e-05 0 0)
(1.28788e-07 -1.56187e-06 0 2.09552e-05 0 0)
(4.48064e-11 -7.25755e-10 0 1.46551e-07 0 0)
(1.67466e-09 -5.03056e-08 0 2.22043e-06 0 0)
(1.16626e-08 -2.45589e-07 0 7.12712e-06 0 0)
(4.0652e-08 -6.80576e-07 0 1.46827e-05 0 0)
(1.09322e-07 -1.47585e-06 0 2.43492e-05 0 0)
(3.94031e-10 -6.41065e-09 0 1.90442e-07 0 0)
(9.22203e-09 -1.19424e-07 0 2.61212e-06 0 0)
(2.99178e-08 -3.96924e-07 0 8.23304e-06 0 0)
(5.54796e-08 -7.98166e-07 0 1.70146e-05 0 0)
(1.33953e-07 -1.71654e-06 0 2.86032e-05 0 0)
(1.48645e-06 9.62987e-06 0 6.80556e-05 0 0)
(3.46997e-06 1.76068e-05 0 9.51246e-05 0 0)
(6.07825e-06 2.67958e-05 0 0.000124384 0 0)
(8.85383e-06 3.61199e-05 -5.98197e-25 0.000154369 -1.27647e-24 1.92139e-42)
(1.17114e-05 4.53365e-05 0 0.000183292 0 0)
(1.45736e-05 5.41525e-05 0 0.00020969 0 0)
(1.73393e-05 6.22127e-05 6.26313e-23 0.000232258 1.48502e-22 7.37485e-39)
(1.9934e-05 6.92007e-05 -6.92906e-23 0.00024973 -1.64287e-22 7.5053e-39)
(2.2273e-05 7.48091e-05 -5.91248e-25 0.000260918 -1.41135e-24 4.20103e-43)
(2.44799e-05 7.91983e-05 -4.14252e-23 0.000265749 -9.92567e-23 1.57842e-39)
(2.64263e-05 8.19385e-05 2.2021e-26 0.000262925 -4.46007e-25 3.37702e-42)
(2.81836e-05 8.29293e-05 1.8726e-25 0.000251721 6.88138e-26 3.98215e-42)
(2.97812e-05 8.23136e-05 2.47734e-23 0.00023351 5.66891e-23 3.73965e-40)
(3.12698e-05 8.01809e-05 2.54478e-23 0.00020955 5.70155e-23 3.0223e-40)
(3.27021e-05 7.6641e-05 6.12042e-23 0.000181617 1.33355e-22 1.3357e-39)
(3.41287e-05 7.17983e-05 -6.30352e-23 0.0001518 -1.32973e-22 1.33588e-39)
(3.56077e-05 6.5749e-05 2.59191e-23 0.000122257 5.25016e-23 1.75313e-40)
(3.71976e-05 5.85688e-05 2.46339e-23 9.49337e-05 4.75166e-23 1.22876e-40)
(3.89611e-05 5.03447e-05 -1.49216e-24 7.14254e-05 -2.79351e-24 4.20901e-42)
(4.09786e-05 4.11966e-05 -1.60834e-24 5.28152e-05 -2.70279e-24 3.63979e-42)
(4.33871e-05 3.13031e-05 -5.02041e-23 3.95895e-05 -7.78479e-23 4.27031e-40)
(4.61832e-05 2.06614e-05 7.71418e-25 3.1399e-05 1.04945e-24 8.42153e-44)
(4.92726e-05 9.51795e-06 -9.34095e-23 2.80696e-05 -1.11518e-22 1.06929e-39)
(5.26423e-05 -1.8401e-06 9.50073e-23 2.88868e-05 9.39371e-23 1.05044e-39)
(5.62356e-05 -1.31309e-05 0 3.29131e-05 0 0)
(5.99491e-05 -2.40822e-05 0 3.91422e-05 0 0)
(6.36588e-05 -3.44393e-05 1.46468e-24 4.66115e-05 5.20303e-25 1.65148e-43)
(6.72762e-05 -4.3956e-05 0 5.44683e-05 0 0)
(7.08431e-05 -5.23599e-05 0 6.19492e-05 0 0)
(7.39557e-05 -5.93692e-05 0 6.82839e-05 0 0)
(2.32675e-06 1.32501e-05 0 8.13569e-05 0 0)
(4.55678e-06 2.17669e-05 0 0.000110229 0 0)
(7.11349e-06 3.06341e-05 0 0.000138754 0 0)
(9.80501e-06 3.94916e-05 5.95802e-25 0.000166618 1.26756e-24 1.70879e-42)
(1.26028e-05 4.82224e-05 0 0.000192762 0 0)
(1.54183e-05 5.65258e-05 0 0.000216098 0 0)
(1.81641e-05 6.40877e-05 -5.98629e-23 0.000235524 -1.37896e-22 6.36852e-39)
(2.07808e-05 7.0639e-05 6.71158e-23 0.00024997 1.53573e-22 6.66993e-39)
(2.32155e-05 7.59605e-05 5.69062e-25 0.000258544 1.30787e-24 3.70218e-43)
(2.55687e-05 8.01924e-05 0 0.000261374 0 0)
(2.77204e-05 8.28638e-05 0 0.000256905 0 0)
(2.97656e-05 8.401e-05 4.43963e-23 0.000245157 9.82042e-23 1.14804e-39)
(3.16809e-05 8.36669e-05 -4.68419e-23 0.0002273 -1.0114e-22 1.15528e-39)
(3.35015e-05 8.18928e-05 0 0.000204475 0 0)
(3.52507e-05 7.87496e-05 1.7198e-22 0.000178235 3.54234e-22 9.86527e-39)
(3.69496e-05 7.43004e-05 -1.77513e-22 0.000150366 -3.54841e-22 9.85849e-39)
(3.86296e-05 6.86134e-05 0 0.000122691 0 0)
(4.03349e-05 6.17655e-05 -5.04791e-23 9.68926e-05 -9.31156e-23 5.30429e-40)
(4.21236e-05 5.38485e-05 5.15953e-23 7.43456e-05 9.04733e-23 5.35681e-40)
(4.40736e-05 4.49913e-05 0 5.60339e-05 0 0)
(4.62423e-05 3.53171e-05 0 4.24486e-05 0 0)
(4.87088e-05 2.49372e-05 -7.51634e-25 3.34918e-05 -1.02687e-24 7.41132e-44)
(5.14777e-05 1.40808e-05 9.36214e-23 2.90189e-05 1.10391e-22 9.71097e-40)
(5.44828e-05 2.96506e-06 -9.63649e-23 2.85011e-05 -9.60138e-23 9.87504e-40)
(5.76938e-05 -8.14603e-06 0 3.11973e-05 0 0)
(6.10399e-05 -1.90001e-05 0 3.62588e-05 0 0)
(6.44157e-05 -2.93683e-05 -1.39318e-24 4.2832e-05 -6.35185e-25 1.4654e-43)
(6.77135e-05 -3.90471e-05 0 5.01328e-05 0 0)
(7.09634e-05 -4.78546e-05 0 5.74884e-05 0 0)
(7.4037e-05 -5.58333e-05 0 6.44991e-05 0 0)
(3.23775e-06 1.66688e-05 0 9.17404e-05 0 0)
(5.41918e-06 2.47296e-05 0 0.000119282 0 0)
(7.94113e-06 3.32238e-05 0 0.00014603 0 0)
(1.06651e-05 4.18577e-05 -4.04156e-23 0.000171995 -8.57469e-23 6.92581e-39)
(1.35193e-05 5.03864e-05 4.71673e-23 0.000196178 1.00968e-22 7.0896e-39)
(1.64175e-05 5.85023e-05 -5.64114e-23 0.000217507 -1.23398e-22 7.08422e-39)
(1.93015e-05 6.59399e-05 6.34134e-23 0.000234935 1.3755e-22 7.2181e-39)
(2.21253e-05 7.24566e-05 -1.12071e-24 0.000247502 -2.43869e-24 1.67049e-42)
(2.48775e-05 7.79166e-05 0 0.000254551 0 0)
(2.76161e-05 8.23716e-05 0 0.000256173 0 0)
(3.02549e-05 8.53677e-05 1.41816e-24 0.000250809 2.91182e-24 1.36898e-42)
(3.28672e-05 8.69663e-05 0 0.000238948 0 0)
(3.53937e-05 8.71177e-05 0 0.00022156 0 0)
(3.784e-05 8.58325e-05 4.21917e-25 0.000199716 8.05248e-25 6.52225e-44)
(4.01874e-05 8.31177e-05 3.12867e-22 0.000174823 5.82699e-22 2.80982e-38)
(4.24157e-05 7.8994e-05 -3.24222e-22 0.000148467 -5.85517e-22 2.80977e-38)
(4.45184e-05 7.35038e-05 -4.56656e-25 0.000122263 -7.98261e-25 4.56106e-44)
(4.65124e-05 6.67177e-05 0 9.76919e-05 0 0)
(4.84426e-05 5.87409e-05 0 7.59821e-05 0 0)
(5.03841e-05 4.97185e-05 -1.82102e-24 5.8021e-05 -2.73971e-24 4.79312e-43)
(5.24226e-05 3.98226e-05 0 4.43055e-05 0 0)
(5.46285e-05 2.92531e-05 0 3.49837e-05 0 0)
(5.70317e-05 1.8191e-05 1.71471e-24 2.98154e-05 1.9317e-24 2.94969e-43)
(5.96288e-05 6.88359e-06 1.07611e-22 2.84068e-05 1.03254e-22 1.00765e-39)
(6.24028e-05 -4.4118e-06 -1.08398e-22 3.01502e-05 -8.60388e-23 9.88968e-40)
(6.53103e-05 -1.54498e-05 1.07445e-22 3.43158e-05 6.70274e-23 8.2539e-40)
(6.82815e-05 -2.60079e-05 -1.08609e-22 4.01388e-05 -4.91825e-23 8.04556e-40)
(7.12258e-05 -3.58874e-05 0 4.68824e-05 0 0)
(7.40783e-05 -4.4911e-05 0 5.38946e-05 0 0)
(7.63503e-05 -5.32282e-05 0 6.10106e-05 0 0)
(4.14226e-06 1.9905e-05 0 0.000101455 0 0)
(6.29172e-06 2.76361e-05 5.87931e-23 0.000127729 1.15768e-22 3.22204e-38)
(8.87972e-06 3.60052e-05 -3.61515e-23 0.000152931 -7.1822e-23 8.51365e-39)
(1.17172e-05 4.45619e-05 -8.98027e-23 0.000177105 -1.85556e-22 3.34503e-38)
(1.47147e-05 5.30061e-05 1.05733e-22 0.000199302 2.20221e-22 3.29906e-38)
(1.78156e-05 6.10799e-05 -5.99023e-23 0.000218539 -1.23887e-22 8.00549e-39)
(2.09893e-05 6.85625e-05 0 0.000233881 0 0)
(2.41937e-05 7.52187e-05 -2.36293e-24 0.000244505 -4.72783e-24 7.07545e-42)
(2.74895e-05 8.10371e-05 0 0.000250062 0 0)
(3.08321e-05 8.58541e-05 0 0.000250357 0 0)
(3.42221e-05 8.93464e-05 -5.42025e-23 0.000244163 -1.01263e-22 1.65871e-39)
(3.76655e-05 9.15153e-05 5.52114e-23 0.00023222 9.91741e-23 1.479e-39)
(4.1083e-05 9.22569e-05 0 0.000215333 0 0)
(4.44357e-05 9.15282e-05 -4.89103e-25 0.000194507 -8.31963e-25 7.18899e-44)
(4.76514e-05 8.92825e-05 4.86603e-22 0.000171002 8.0478e-22 5.64394e-38)
(5.06564e-05 8.54979e-05 -5.06291e-22 0.000146217 -8.1085e-22 5.64373e-38)
(5.33972e-05 8.01903e-05 5.34094e-25 0.000121552 8.29693e-25 5.02725e-44)
(5.58561e-05 7.34228e-05 0 9.83007e-05 0 0)
(5.8061e-05 6.53116e-05 6.81248e-23 7.75447e-05 9.75917e-23 5.90369e-40)
(6.00846e-05 5.60255e-05 -6.43415e-23 6.00918e-05 -8.76403e-23 5.16449e-40)
(6.20308e-05 4.57744e-05 -2.10365e-24 4.64331e-05 -2.66508e-24 4.6747e-43)
(6.39931e-05 3.47834e-05 0 3.67435e-05 0 0)
(6.60346e-05 2.32889e-05 4.06005e-24 3.09189e-05 4.21856e-24 1.40376e-42)
(6.81951e-05 1.1552e-05 0 2.86479e-05 0 0)
(7.04864e-05 -1.63931e-07 -1.2224e-22 2.9438e-05 -9.39119e-23 1.01017e-39)
(7.28909e-05 -1.16121e-05 2.38256e-22 3.26726e-05 1.47901e-22 3.63479e-39)
(7.53745e-05 -2.25712e-05 -2.33625e-22 3.76796e-05 -1.09919e-22 3.20592e-39)
(7.78908e-05 -3.28446e-05 -1.12653e-22 4.3783e-05 -3.64424e-23 6.42124e-40)
(8.03304e-05 -4.22581e-05 2.3194e-22 5.03621e-05 4.11464e-23 2.73611e-39)
(8.1582e-05 -5.10692e-05 0 5.74634e-05 0 0)
(5.14211e-06 2.32809e-05 0 0.000110913 0 0)
(7.35906e-06 3.09035e-05 -6.54762e-23 0.000135812 -1.29703e-22 3.70611e-38)
(1.0094e-05 3.92498e-05 7.83182e-23 0.0001593 1.55992e-22 3.58239e-38)
(1.31205e-05 4.77837e-05 0 0.000181473 0 0)
(1.6366e-05 5.62281e-05 0 0.000201491 0 0)
(1.98075e-05 6.43747e-05 -2.00898e-24 0.000218475 -3.87361e-24 8.21353e-42)
(2.34351e-05 7.2025e-05 0 0.000231622 0 0)
(2.72182e-05 7.89554e-05 2.65546e-24 0.000240245 4.89306e-24 7.77122e-42)
(3.12586e-05 8.52198e-05 -4.7135e-23 0.000244279 -8.36948e-23 1.81624e-39)
(3.54587e-05 9.04964e-05 5.24523e-23 0.000243198 8.92076e-23 1.84317e-39)
(3.98684e-05 9.45684e-05 5.94859e-23 0.000236286 9.83665e-23 1.69664e-39)
(4.44237e-05 9.73559e-05 -6.28905e-23 0.000224327 -9.9283e-23 1.60853e-39)
(4.90284e-05 9.87285e-05 -2.09658e-24 0.000208043 -3.20743e-24 1.37452e-42)
(5.35842e-05 9.85883e-05 1.11517e-24 0.000188358 1.65582e-24 3.12542e-43)
(5.79532e-05 9.68409e-05 7.02161e-22 0.000166387 1.01765e-21 9.56007e-38)
(6.19957e-05 9.34248e-05 -7.33032e-22 0.00014333 -1.02887e-21 9.55968e-38)
(6.55998e-05 8.83283e-05 -1.2456e-24 0.00012038 -1.70209e-24 2.23513e-43)
(6.87058e-05 8.16017e-05 2.52421e-24 9.86312e-05 3.34061e-24 7.88167e-43)
(7.13203e-05 7.33638e-05 -8.04328e-23 7.90123e-05 -1.02322e-22 6.60693e-40)
(7.35149e-05 6.37991e-05 7.84099e-23 6.2239e-05 9.54738e-23 6.15517e-40)
(7.54092e-05 5.31434e-05 8.11064e-23 4.87805e-05 9.26124e-23 5.3269e-40)
(7.71323e-05 4.16564e-05 -7.83678e-23 3.8847e-05 -8.33982e-23 4.93018e-40)
(7.87932e-05 2.96158e-05 -4.7217e-24 3.24266e-05 -4.57123e-24 1.54174e-42)
(8.0474e-05 1.73079e-05 0 2.9309e-05 0 0)
(8.22224e-05 5.01193e-06 4.55805e-24 2.91169e-05 3.33069e-24 1.21107e-42)
(8.40491e-05 -7.01503e-06 0 3.13499e-05 0 0)
(8.59508e-05 -1.8544e-05 0 3.54354e-05 0 0)
(8.79303e-05 -2.9371e-05 2.65517e-22 4.07729e-05 9.28711e-23 3.19554e-39)
(8.98749e-05 -3.9325e-05 -2.56723e-22 4.67818e-05 -5.66045e-23 2.91843e-39)
(8.99651e-05 -4.88576e-05 0 5.37065e-05 0 0)
(6.35448e-06 2.69986e-05 -5.71382e-23 0.0001198 -1.00728e-22 3.64902e-38)
(8.75169e-06 3.46681e-05 1.05766e-22 0.000142976 2.05961e-22 8.9896e-38)
(1.17215e-05 4.30503e-05 -4.24793e-23 0.000164499 -8.17081e-23 9.69234e-39)
(1.5041e-05 5.16249e-05 0 0.000184475 0 0)
(1.86679e-05 6.01563e-05 -6.11756e-23 0.000202175 -1.1291e-22 9.1468e-39)
(2.26095e-05 6.8466e-05 6.90787e-23 0.000216816 1.22043e-22 8.80054e-39)
(2.68734e-05 7.63649e-05 -7.9873e-23 0.000227722 -1.36706e-22 8.10765e-39)
(3.14499e-05 8.36516e-05 9.35339e-23 0.000234369 1.51438e-22 8.81239e-39)
(3.64668e-05 9.03988e-05 0 0.000236869 0 0)
(4.17983e-05 9.61709e-05 3.67281e-24 0.000234465 5.45378e-24 7.51939e-42)
(4.75136e-05 0.000100835 -6.5724e-23 0.000226969 -9.4623e-23 1.7361e-39)
(5.34892e-05 0.000104245 3.61077e-23 0.000215114 4.88419e-23 4.7751e-40)
(5.95985e-05 0.000106246 4.98678e-24 0.000199564 6.08181e-24 1.16648e-41)
(6.56721e-05 0.000106696 4.03765e-23 0.000181158 5.18804e-23 3.47378e-40)
(7.14939e-05 0.00010546 9.6573e-22 0.000160863 1.21881e-21 1.46529e-37)
(7.68452e-05 0.000102441 -1.01068e-21 0.000139689 -1.23755e-21 1.46515e-37)
(8.15444e-05 9.76005e-05 4.81422e-23 0.000118619 5.77222e-23 2.53502e-40)
(8.54817e-05 9.09692e-05 -6.38173e-24 9.85522e-05 -7.45049e-24 7.89847e-42)
(8.86388e-05 8.26593e-05 4.70109e-23 8.02589e-05 5.28703e-23 1.61889e-40)
(9.10874e-05 7.28599e-05 -9.55534e-23 6.43532e-05 -1.03803e-22 7.28742e-40)
(9.29677e-05 6.1823e-05 -5.88248e-24 5.12682e-05 -6.04776e-24 2.34941e-42)
(9.44498e-05 4.98376e-05 0 4.1243e-05 0 0)
(9.56954e-05 3.72133e-05 1.78338e-22 3.4334e-05 1.57843e-22 1.70936e-39)
(9.68376e-05 2.42642e-05 -1.81879e-22 3.04284e-05 -1.45905e-22 1.78025e-39)
(9.79679e-05 1.12915e-05 1.7406e-22 2.92624e-05 1.21842e-22 1.39827e-39)
(9.91312e-05 -1.43072e-06 -1.66586e-22 3.0451e-05 -9.96427e-23 1.28021e-39)
(0.000100355 -1.36571e-05 -1.0128e-23 3.35273e-05 -4.85137e-24 4.24667e-42)
(0.000101688 -2.51661e-05 -1.54364e-22 3.79764e-05 -5.74067e-23 9.0478e-40)
(0.000103035 -3.57788e-05 4.47983e-22 4.32709e-05 1.13827e-22 7.21892e-39)
(0.000101818 -4.62284e-05 -3.12495e-22 4.97991e-05 -4.01053e-23 3.47364e-39)
(7.90527e-06 3.11896e-05 3.01829e-23 0.000127702 5.26552e-23 9.24934e-39)
(1.06112e-05 3.90244e-05 -4.0208e-23 0.000148803 -7.4708e-23 1.18083e-38)
(1.39286e-05 4.75021e-05 -4.96115e-23 0.000168158 -8.99057e-23 1.14687e-38)
(1.76746e-05 5.61817e-05 5.99081e-23 0.000185801 1.03636e-22 1.17802e-38)
(2.18429e-05 6.48655e-05 -6.74393e-23 0.000201078 -1.1233e-22 9.90231e-39)
(2.64681e-05 7.33906e-05 8.40767e-23 0.000213325 1.31971e-22 1.14481e-38)
(3.15735e-05 8.15699e-05 2.77562e-24 0.000221987 4.03237e-24 9.31021e-42)
(3.71961e-05 8.92548e-05 0 0.000226731 0 0)
(4.3444e-05 9.64552e-05 -5.98863e-23 0.000227702 -8.10992e-23 2.14723e-39)
(5.0209e-05 0.000102707 -4.25392e-24 0.000224101 -6.6776e-24 1.75856e-42)
(5.75403e-05 0.000107926 -4.64375e-24 0.00021618 -6.98739e-24 1.41969e-42)
(6.52678e-05 0.000111919 8.52373e-23 0.000204569 1.00166e-22 2.03571e-39)
(7.32168e-05 0.000114514 4.20103e-23 0.000189893 4.84705e-23 3.52957e-40)
(8.11351e-05 0.000115535 -7.21857e-23 0.000172902 -8.04508e-23 8.81994e-40)
(8.87155e-05 0.000114816 1.30389e-21 0.000154416 1.43029e-21 2.18206e-37)
(9.56479e-05 0.00011223 -1.31351e-21 0.00013526 -1.40305e-21 2.01558e-37)
(0.000101671 0.000107709 -8.20109e-23 0.000116216 -8.62525e-23 6.14674e-40)
(0.000106619 0.000101258 6.28733e-23 9.79926e-05 6.46931e-23 3.28592e-40)
(0.000110445 9.29736e-05 1.11695e-22 8.12034e-05 1.11885e-22 8.17226e-40)
(0.000113223 8.30376e-05 5.94205e-24 6.63549e-05 5.31315e-24 1.00214e-42)
(0.000115119 7.17062e-05 5.70175e-24 5.38324e-05 4.73263e-24 9.36615e-43)
(0.00011635 5.92861e-05 -1.09143e-22 4.38859e-05 -9.62184e-23 6.17634e-40)
(0.000117137 4.6111e-05 0 3.66269e-05 0 0)
(0.000117672 3.25204e-05 -6.58142e-24 3.20292e-05 -4.84568e-24 1.7981e-42)
(0.000118099 1.88399e-05 1.86193e-22 2.99353e-05 1.23901e-22 1.29729e-39)
(0.000118505 5.36437e-06 -1.95376e-22 3.00715e-05 -1.13718e-22 1.44355e-39)
(0.000118952 -7.64034e-06 1.85721e-22 3.20809e-05 9.04544e-23 1.14782e-39)
(0.000119534 -1.99235e-05 -1.71627e-22 3.5539e-05 -6.71203e-23 9.8442e-40)
(0.000120182 -3.12898e-05 -1.662e-22 3.9985e-05 -4.71713e-23 8.05458e-40)
(0.000117522 -4.28298e-05 1.86202e-22 4.5881e-05 3.23506e-23 1.03663e-39)
(9.94974e-06 3.59601e-05 0 0.000134227 0 0)
(1.31151e-05 4.4047e-05 -3.92252e-23 0.000152969 -6.74466e-23 9.66794e-39)
(1.6918e-05 5.26659e-05 5.81176e-23 0.000170008 9.47167e-23 1.43657e-38)
(2.12518e-05 6.14923e-05 -6.67549e-23 0.000185213 -1.03591e-22 1.23195e-38)
(2.61481e-05 7.03565e-05 7.49494e-23 0.000198003 1.08423e-22 1.12088e-38)
(3.16681e-05 7.91044e-05 -8.31604e-23 0.000207837 -1.14111e-22 9.21895e-39)
(3.78486e-05 8.7546e-05 9.64311e-23 0.000214288 1.2242e-22 9.46744e-39)
(4.48127e-05 9.56295e-05 7.3413e-24 0.000217242 8.75126e-24 3.94788e-41)
(5.2568e-05 0.00010319 4.2018e-24 0.000216708 4.76348e-24 9.45522e-42)
(6.10964e-05 0.000109864 4.75508e-24 0.000212102 5.14796e-24 8.97597e-42)
(7.03777e-05 0.000115561 5.39965e-24 0.000203926 5.67185e-24 8.46538e-42)
(8.02068e-05 0.000120069 -2.97468e-24 0.000192718 -3.01657e-24 1.96896e-42)
(9.03412e-05 0.000123203 5.46593e-23 0.000179062 5.4165e-23 5.0051e-40)
(0.000100434 0.000124768 -2.76946e-23 0.000163619 -2.62001e-23 1.22342e-40)
(0.000110074 0.000124577 1.6136e-21 0.000147063 1.54075e-21 2.74843e-37)
(0.00011885 0.000122474 -1.75405e-21 0.000130044 -1.63946e-21 2.95194e-37)
(0.000126414 0.000118359 -3.15391e-23 0.000113153 -2.93753e-23 6.43127e-41)
(0.000132536 0.000112209 5.68111e-23 9.69169e-05 5.18337e-23 2.22293e-40)
(0.000137142 0.000104091 -4.09125e-24 8.17966e-05 -3.6625e-24 9.36902e-43)
(0.00014031 9.41673e-05 -1.63288e-23 6.81885e-05 -1.42469e-23 1.31488e-41)
(0.00014224 8.26854e-05 -8.11373e-24 5.64197e-05 -6.82531e-24 2.8953e-42)
(0.0001432 6.99566e-05 -7.98554e-24 4.67356e-05 -6.40579e-24 2.54068e-42)
(0.000143477 5.63296e-05 -1.56262e-23 3.92877e-05 -1.1785e-23 8.91831e-42)
(0.00014333 4.21646e-05 2.5532e-22 3.41236e-05 1.78372e-22 2.13505e-39)
(0.000142963 2.78098e-05 -2.50815e-22 3.11814e-05 -1.60046e-22 2.07425e-39)
(0.00014251 1.3583e-05 2.25319e-22 3.0294e-05 1.26707e-22 1.46193e-39)
(0.000142078 -2.26827e-07 -2.07283e-22 3.12115e-05 -1.00928e-22 1.25445e-39)
(0.000141809 -1.33351e-05 1.8379e-22 3.36055e-05 7.39621e-23 8.68618e-40)
(0.000141658 -2.55188e-05 -2.18973e-22 3.70905e-05 -6.99739e-23 1.24397e-39)
(0.000137441 -3.82895e-05 0 4.21309e-05 0 0)
(1.2681e-05 4.13775e-05 0 0.000139011 0 0)
(1.64838e-05 4.97627e-05 -2.87166e-24 0.000155169 -4.3046e-24 4.73688e-41)
(2.09367e-05 5.85403e-05 5.0606e-23 0.000169789 7.24206e-23 9.09189e-39)
(2.60465e-05 6.75158e-05 9.28916e-26 0.000182486 8.56065e-25 5.01577e-42)
(3.18862e-05 7.65435e-05 -8.39804e-23 0.000192769 -1.0314e-22 1.21765e-38)
(3.85433e-05 8.54745e-05 -6.288e-24 0.00020022 -7.29897e-24 4.58613e-41)
(4.60755e-05 9.41255e-05 -7.15453e-24 0.000204542 -7.54621e-24 4.45779e-41)
(5.46736e-05 0.000102518 5.85827e-23 0.000205833 5.9347e-23 2.04006e-39)
(6.42647e-05 0.000110331 -8.16482e-23 0.000203898 -7.74428e-23 3.08019e-39)
(7.4905e-05 0.000117333 -9.29665e-26 0.000198523 -1.57905e-25 1.98817e-46)
(8.64885e-05 0.000123399 4.8705e-23 0.000190268 4.33893e-23 5.68602e-40)
(9.87776e-05 0.000128333 -5.36923e-23 0.000179628 -4.56675e-23 5.75448e-40)
(0.000111443 0.000131947 2.5648e-23 0.000167142 2.18409e-23 9.2283e-41)
(0.000124031 0.000134033 -3.1536e-23 0.00015337 -2.60995e-23 1.2211e-40)
(0.000136017 0.000134393 2.05679e-21 0.000138852 1.71282e-21 3.75467e-37)
(0.000146877 0.000132845 -2.1576e-21 0.000124068 -1.77115e-21 3.75471e-37)
(0.000156171 0.000129257 -3.64037e-23 0.000109435 -2.99218e-23 7.9648e-41)
(0.000163606 0.000123563 4.19895e-23 9.53079e-05 3.41798e-23 9.95569e-41)
(0.00016908 0.000115794 -7.05687e-23 8.20026e-05 -5.67381e-23 2.18103e-40)
(0.000172679 0.000106077 9.46257e-23 6.98053e-05 7.49047e-23 3.80067e-40)
(0.000174641 9.46388e-05 -7.13059e-26 5.89774e-05 -3.37706e-26 1.19854e-46)
(0.000175296 8.17822e-05 -1.47134e-22 4.9746e-05 -1.08574e-22 6.78615e-40)
(0.000175002 6.78604e-05 1.63119e-22 4.22873e-05 1.15348e-22 8.35572e-40)
(0.000174091 5.32481e-05 1.77203e-23 3.67083e-05 1.16362e-23 8.68035e-42)
(0.000172834 3.83139e-05 1.69402e-23 3.30299e-05 1.03507e-23 7.52225e-42)
(0.00017142 2.33961e-05 -2.62489e-22 3.11838e-05 -1.43532e-22 1.62916e-39)
(0.000170006 8.81157e-06 3.57686e-24 3.10202e-05 2.36175e-24 5.72868e-42)
(0.000168789 -5.12183e-06 2.78243e-22 3.23112e-05 1.15559e-22 1.75156e-39)
(0.000167745 -1.81484e-05 0 3.47531e-05 0 0)
(0.000161887 -3.22397e-05 0 3.87428e-05 0 0)
(1.63386e-05 4.74546e-05 0 0.000141714 0 0)
(2.09864e-05 5.61314e-05 5.57621e-23 0.000155128 7.28267e-23 1.46132e-38)
(2.6279e-05 6.50412e-05 1.9186e-25 0.000167266 9.15964e-25 4.63883e-42)
(3.23795e-05 7.4121e-05 5.75882e-26 0.000177439 8.10966e-25 5.57384e-42)
(3.94076e-05 8.32479e-05 -1.82698e-22 0.000185249 -1.85316e-22 4.86713e-38)
(4.74739e-05 9.22759e-05 1.11507e-22 0.000190406 1.03743e-22 1.30582e-38)
(5.66686e-05 0.000101045 8.22473e-24 0.000192752 7.25825e-24 4.86966e-41)
(6.72079e-05 0.000109596 0 0.000192512 0 0)
(7.89933e-05 0.00011753 -8.12645e-23 0.000189363 -6.47221e-23 2.45817e-39)
(9.21011e-05 0.000124725 9.16113e-23 0.000183455 6.84505e-23 2.51605e-39)
(0.000106351 0.000131042 -5.49119e-23 0.000175321 -4.10185e-23 6.24081e-40)
(0.000121455 0.000136308 -2.38511e-25 0.000165424 -1.18012e-24 1.32016e-42)
(0.000136985 0.000140343 6.60308e-23 0.000154247 4.71842e-23 5.8552e-40)
(0.000152368 0.000142945 -2.22119e-24 0.000142258 -1.60009e-24 4.99772e-43)
(0.000166956 0.000143902 2.51526e-21 0.000129861 1.83289e-21 4.80071e-37)
(0.000180107 0.000143011 -2.63852e-21 0.000117386 -1.91138e-21 4.8051e-37)
(0.000191285 0.000140101 2.59012e-24 0.000105087 1.89197e-24 3.61323e-43)
(0.000200134 0.000135057 8.49766e-23 9.3165e-05 6.21583e-23 3.09902e-40)
(0.000206528 0.000127858 -1.45827e-25 8.17977e-05 -2.40533e-25 1.34104e-42)
(0.000210569 0.000118585 -1.08308e-22 7.11641e-05 -7.81819e-23 4.1725e-40)
(0.000212539 0.00010743 1.82447e-22 6.14547e-05 1.28607e-22 9.61669e-40)
(0.000212835 9.46733e-05 -1.7049e-22 5.2867e-05 -1.17498e-22 8.33741e-40)
(0.000211894 8.06643e-05 0 4.55872e-05 0 0)
(0.000210129 6.57847e-05 -2.01691e-23 3.97657e-05 -1.26465e-23 9.4827e-42)
(0.000207883 5.0419e-05 3.13847e-22 3.54932e-05 1.82189e-22 2.04546e-39)
(0.000205406 3.49257e-05 -6.29671e-22 3.27876e-05 -3.36543e-22 8.05462e-39)
(0.000202911 1.96498e-05 3.73918e-24 3.15929e-05 2.59877e-24 6.31674e-42)
(0.00020065 4.94394e-06 -1.43768e-23 3.178e-05 -5.3828e-24 2.70962e-42)
(0.000198624 -8.90519e-06 2.7575e-22 3.31329e-05 9.9749e-23 1.35398e-39)
(0.00019108 -2.43426e-05 0 3.59199e-05 0 0)
(2.12132e-05 5.41273e-05 5.80199e-24 0.000142037 6.34323e-24 2.32694e-40)
(2.69424e-05 6.30259e-05 0 0.000152624 0 0)
(3.32901e-05 7.1994e-05 4.61348e-24 0.000162266 4.52181e-24 5.58501e-41)
(4.06228e-05 8.10864e-05 -8.2516e-23 0.000169956 -7.27294e-23 1.22643e-38)
(4.91092e-05 9.01982e-05 1.05018e-22 0.000175391 8.31365e-23 1.44432e-38)
(5.88764e-05 9.91849e-05 -1.24717e-22 0.000178403 -9.30344e-23 1.35887e-38)
(7.00813e-05 0.000107951 1.45062e-22 0.00017899 9.87271e-23 1.39683e-38)
(8.28802e-05 0.000116461 8.43128e-23 0.000177365 5.60498e-23 3.20592e-39)
(9.72296e-05 0.00012436 -2.05102e-22 0.000173256 -1.29967e-22 1.43459e-38)
(0.000113162 0.000131597 -7.37764e-24 0.000167065 -6.57356e-24 2.73294e-42)
(0.000130437 0.000138039 1.14314e-22 0.000159259 6.89126e-23 2.61486e-39)
(0.000148696 0.000143549 -6.78349e-23 0.000150275 -4.20926e-23 6.37577e-40)
(0.000167398 0.000147965 3.65839e-23 0.000140538 2.17784e-23 1.76231e-40)
(0.000185841 0.000151097 6.22722e-23 0.000130417 3.88332e-23 3.48419e-40)
(0.000203246 0.00015273 2.99095e-21 0.000120198 1.91386e-21 5.91581e-37)
(0.000218848 0.000152633 -3.17657e-21 0.000110074 -2.04071e-21 6.08018e-37)
(0.000232016 0.000150589 6.70526e-23 0.000100155 4.39018e-23 2.05649e-40)
(0.000242334 0.000146427 4.81084e-23 9.05039e-05 3.1815e-23 7.5301e-41)
(0.00024966 0.000140058 -9.74495e-23 8.11716e-05 -6.47173e-23 3.35929e-40)
(0.000254115 0.000131504 2.20688e-22 7.22338e-05 1.45636e-22 1.34418e-39)
(0.000256035 0.000120909 1.18079e-23 6.38073e-05 6.82287e-24 1.60082e-42)
(0.000255894 0.000108521 -3.62845e-22 5.605e-05 -2.32482e-22 3.04029e-39)
(0.000254212 9.46753e-05 1.90635e-22 4.91441e-05 1.18855e-22 8.01128e-40)
(0.000251491 7.97531e-05 3.70045e-22 4.3268e-05 2.18899e-22 2.54784e-39)
(0.00024815 6.41504e-05 -3.62512e-22 3.85679e-05 -2.04265e-22 2.47773e-39)
(0.000244506 4.82451e-05 3.47638e-22 3.51344e-05 1.80906e-22 1.97965e-39)
(0.000240833 3.24087e-05 -3.60876e-22 3.29982e-05 -1.72761e-22 2.15809e-39)
(0.00023744 1.7031e-05 2.05468e-23 3.21208e-05 8.72385e-24 6.28242e-42)
(0.000234347 2.42661e-06 0 3.23751e-05 0 0)
(0.000225114 -1.43107e-05 -4.03295e-23 3.38591e-05 -1.17895e-23 2.11394e-41)
(2.76488e-05 6.12387e-05 -6.71961e-24 0.000139744 -6.17477e-24 2.51652e-40)
(3.47225e-05 7.02235e-05 6.93839e-23 0.000147507 5.62723e-23 1.7259e-38)
(4.23633e-05 7.91262e-05 -8.06414e-23 0.000154702 -5.79727e-23 1.58673e-38)
(5.11914e-05 8.80896e-05 -6.19117e-24 0.000160015 -4.17573e-24 6.0594e-41)