/*--------------------------------*- C++ -*----------------------------------*\
  =========                 |
  \\      /  F ield         | OpenFOAM: The Open Source CFD Toolbox
   \\    /   O peration     | Website:  https://openfoam.org
    \\  /    A nd           | Version:  12
     \\/     M anipulation  |
\*---------------------------------------------------------------------------*/
FoamFile
{
    format      ascii;
    class       volVectorField;
    location    "0";
    object      vorticity;
}
// * * * * * * * * * * * * * * * * * * * * * * * * * * * * * * * * * * * * * //

dimensions      [0 0 -1 0 0 0 0];

internalField   nonuniform List<vector> 
6750
(
(0 -0 0)
(0 -0 0)
(0 -0 0)
(0 -0 0)
(0 -0 0)
(0 -0 0)
(0 -0 0)
(0 -0 0)
(0 -0 0)
(0 -0 0)
(0 -0 0)
(0 -0 0)
(0 -0 0)
(0 -0 0)
(0 -0 0)
(0 -0 0)
(0 -0 0)
(0 -0 0)
(0 -0 0)
(0 -0 0)
(0 -0 0)
(0 -0 0)
(0 -0 0)
(0 -0 0)
(0 -0 0)
(0 -0 0)
(0 -0 0)
(0 -0 0)
(0 -0 0)
(0 -0 0)
(0 -0 0)
(0 -0 0)
(0 -0 0)
(0 -0 0)
(0 -0 0)
(0 -0 0)
(0 -0 0)
(0 -0 0)
(0 -0 0)
(0 -0 0)
(0 -0 0)
(0 -0 0)
(0 -0 0)
(0 -0 0)
(0 -0 0)
(0 -0 0)
(0 -0 0)
(0 -0 0)
(0 -0 0)
(0 -0 0)
(0 -0 0)
(0 -0 0)
(0 -0 0)
(0 -0 0)
(0 -0 0)
(0 -0 0)
(0 -0 0)
(0 -0 0)
(0 -0 0)
(0 -0 0)
(0 -0 0)
(0 -0 0)
(0 -0 0)
(0 -0 0)
(0 -0 0)
(0 -0 0)
(0 -0 0)
(0 -0 0)
(0 -0 0)
(0 -0 0)
(0 -0 0)
(0 -0 0)
(0 -0 0)
(0 -0 0)
(0 -0 0)
(0 -0 0)
(0 -0 0)
(0 -0 0)
(0 -0 0)
(0 -0 0)
(0 -0 0)
(0 -0 0)
(0 -0 0)
(0 -0 0)
(0 -0 0)
(0 -0 0)
(0 -0 0)
(0 -0 0)
(0 -0 0)
(0 -0 0)
(0 -0 0)
(0 -0 0)
(0 -0 0)
(0 -0 0)
(0 -0 0)
(0 -0 0)
(0 -0 0)
(0 -0 0)
(0 -0 0)
(0 -0 0)
(0 -0 0)
(0 -0 0)
(0 -0 0)
(0 -0 0)
(0 -0 0)
(0 -0 0)
(0 -0 0)
(0 -0 0)
(0 -0 0)
(0 -0 0)
(0 -0 0)
(0 -0 0)
(0 -0 0)
(0 -0 0)
(0 -0 0)
(0 -0 0)
(0 -0 0)
(0 -0 0)
(0 -0 0)
(0 -0 0)
(0 -0 0)
(0 -0 0)
(0 -0 0)
(0 -0 0)
(0 -0 0)
(0 -0 0)
(0 -0 0)
(0 -0 0)
(0 -0 0)
(0 -0 0)
(0 -0 0)
(0 -0 0)
(0 -0 0)
(0 -0 0)
(0 -0 0)
(0 -0 0)
(0 -0 0)
(0 -0 0)
(0 -0 0)
(0 -0 0)
(0 -0 0)
(0 -0 0)
(0 -0 0)
(0 -0 0)
(0 -0 0)
(0 -0 0)
(0 -0 0)
(0 -0 0)
(0 -0 0)
(0 -0 0)
(0 -0 0)
(0 -0 0)
(0 -0 0)
(0 -4.00985e-20 -5.1326e-17)
(0 -0 0)
(0 -0 0)
(0 2.59533e-18 0)
(0 -2.60333e-18 5.20666e-17)
(0 -2.03939e-20 0)
(0 -1.30829e-18 0)
(0 -0 -5.24349e-17)
(0 -0 0)
(0 6.57265e-19 0)
(0 6.57792e-19 0)
(0 1.56965e-18 0)
(0 -1.56965e-18 0)
(0 6.57792e-19 0)
(0 6.46996e-19 0)
(0 -0 0)
(0 -0 -5.24349e-17)
(0 -1.30829e-18 0)
(0 2.03939e-20 0)
(0 -2.60333e-18 5.20666e-17)
(0 2.59533e-18 0)
(0 -0 0)
(0 -0 0)
(0 4.00985e-20 -5.1326e-17)
(0 -0 0)
(0 -0 0)
(0 -0 0)
(0 -0 2.70042e-17)
(0 -0 -2.71434e-17)
(0 -0 0)
(0 4.28139e-20 2.74009e-17)
(0 -0 -5.5036e-17)
(0 -0 0)
(0 -2.7726e-18 -2.7726e-17)
(0 2.82504e-18 -5.56315e-17)
(0 2.17933e-20 0)
(0 -0 -2.79646e-17)
(0 -0 2.80228e-17)
(0 1.40349e-18 2.80697e-17)
(0 -1.40526e-18 0)
(0 -0 0)
(0 4.87668e-18 -2.81408e-17)
(0 -4.87668e-18 -2.81408e-17)
(0 -0 -2.81289e-17)
(0 -1.39428e-18 0)
(0 1.40349e-18 2.80697e-17)
(0 -0 5.60455e-17)
(0 -0 -2.79646e-17)
(0 -2.17933e-20 0)
(0 2.73812e-18 -5.56315e-17)
(0 -2.7726e-18 -2.7726e-17)
(0 -0 0)
(0 -0 -5.5036e-17)
(0 -4.28139e-20 2.74009e-17)
(0 -0 0)
(0 -0 -5.42868e-17)
(0 -0 2.70042e-17)
(0 -0 -5.76715e-17)
(0 -0 0)
(0 -0 2.91388e-17)
(0 -2.83638e-18 2.92788e-17)
(0 2.84909e-18 0)
(0 -2.95316e-18 0)
(0 2.96433e-18 0)
(0 -4.64753e-20 0)
(0 -0 0)
(0 -0 0)
(0 4.68393e-20 0)
(0 -0 0)
(0 -0 -3.00701e-17)
(0 1.17566e-20 0)
(0 8.39787e-18 0)
(0 -8.39787e-18 0)
(0 -1.17566e-20 9.02906e-17)
(0 -0 -6.01402e-17)
(0 -0 0)
(0 -4.68393e-20 0)
(0 -0 0)
(0 -0 2.98338e-17)
(0 4.64753e-20 -2.97442e-17)
(0 2.96433e-18 0)
(0 -2.95316e-18 0)
(0 3.0329e-18 0)
(0 -3.01937e-18 0)
(0 -0 2.91388e-17)
(0 -0 -2.89909e-17)
(0 -0 -5.76715e-17)
(0 -0 3.08151e-17)
(0 6.19768e-18 -3.09884e-17)
(0 -3.11539e-18 0)
(0 -6.35996e-18 0)
(0 6.38985e-18 -3.14577e-17)
(0 -3.15944e-18 3.15944e-17)
(0 -0 0)
(0 -9.94798e-20 0)
(0 -0 0)
(0 -0 -3.20222e-17)
(0 -1.70511e-18 3.20962e-17)
(0 1.6078e-18 0)
(0 -0 0)
(0 -1.25904e-20 3.22314e-17)
(0 1.21536e-17 0)
(0 -1.21536e-17 0)
(0 1.25904e-20 -3.22314e-17)
(0 -0 0)
(0 1.6078e-18 -3.2156e-17)
(0 -1.50451e-18 3.20962e-17)
(0 -5.00347e-20 0)
(0 -0 0)
(0 9.94798e-20 0)
(0 -0 0)
(0 -3.15944e-18 3.15944e-17)
(0 6.19324e-18 -3.14577e-17)
(0 -6.16427e-18 3.13106e-17)
(0 -3.11539e-18 0)
(0 6.19768e-18 -3.09884e-17)
(0 -0 3.08151e-17)
(0 -0 0)
(0 -6.8374e-18 0)
(0 6.66727e-18 0)
(0 -0 0)
(0 -0 0)
(0 -1.05723e-19 0)
(0 -0 0)
(0 1.06565e-19 0)
(0 -1.71073e-18 -3.42147e-17)
(0 1.71569e-18 0)
(0 1.77361e-18 0)
(0 -1.72325e-18 0)
(0 -5.39312e-20 0)
(0 2.69924e-20 0)
(0 1.61669e-17 0)
(0 -1.61669e-17 0)
(0 -2.69924e-20 3.45502e-17)
(0 5.39312e-20 3.4516e-17)
(0 -1.72325e-18 3.44649e-17)
(0 1.66612e-18 3.43974e-17)
(0 1.7693e-18 3.43138e-17)
(0 -1.71073e-18 -3.42147e-17)
(0 -1.06565e-19 0)
(0 -0 0)
(0 1.05723e-19 0)
(0 -0 6.7355e-17)
(0 -0 0)
(0 6.66727e-18 3.33364e-17)
(0 -6.42301e-18 -3.3151e-17)
(0 -0 0)
(0 -6.83527e-18 -3.52788e-17)
(0 1.08706e-17 0)
(0 -3.57039e-18 0)
(0 -0 0)
(0 -3.60876e-18 -3.60876e-17)
(0 3.51278e-18 0)
(0 -3.52823e-18 0)
(0 3.6565e-18 0)
(0 -0 3.66938e-17)
(0 1.15019e-19 0)
(0 -1.84503e-18 0)
(0 9.24428e-19 0)
(0 1.15734e-19 -3.7035e-17)
(0 8.97881e-19 0)
(0 2.04785e-17 -3.70933e-17)
(0 -2.04785e-17 -3.70933e-17)
(0 9.55809e-19 -3.70738e-17)
(0 -1.15734e-19 0)
(0 9.24428e-19 -3.69771e-17)
(0 -1.84503e-18 -3.69006e-17)
(0 -1.15019e-19 0)
(0 -0 0)
(0 3.6565e-18 0)
(0 -3.75586e-18 3.64204e-17)
(0 3.73941e-18 0)
(0 -3.60876e-18 -7.21752e-17)
(0 -2.24385e-19 3.59016e-17)
(0 -3.57039e-18 -3.57039e-17)
(0 1.04269e-17 0)
(0 -7.27625e-18 -3.52788e-17)
(0 3.54364e-18 -7.55977e-17)
(0 -4.04203e-18 0)
(0 -4.06687e-18 0)
(0 4.09052e-18 0)
(0 -3.87088e-18 0)
(0 4.1336e-18 0)
(0 1.2214e-19 3.90847e-17)
(0 -0 0)
(0 -1.96971e-18 0)
(0 -1.23504e-19 0)
(0 -1.2384e-19 0)
(0 2.04783e-18 0)
(0 9.32372e-19 0)
(0 -1.49345e-18 0)
(0 2.55729e-17 0)
(0 -2.45767e-17 0)
(0 -1.49345e-18 0)
(0 1.11885e-18 0)
(0 1.98578e-18 0)
(0 1.2384e-19 0)
(0 1.23504e-19 0)
(0 -1.96971e-18 3.93942e-17)
(0 -0 -3.92484e-17)
(0 -1.2214e-19 3.90847e-17)
(0 3.64729e-18 0)
(0 -3.87088e-18 0)
(0 3.8499e-18 7.69979e-17)
(0 -3.58842e-18 0)
(0 -3.56649e-18 -3.80426e-17)
(0 4.01613e-18 -7.55977e-17)
(0 -0 8.1078e-17)
(0 -3.82623e-18 -4.08131e-17)
(0 4.62111e-18 0)
(0 -4.39106e-18 0)
(0 4.15646e-18 0)
(0 -3.91744e-18 0)
(0 3.93658e-18 -4.19902e-17)
(0 2.63598e-19 4.21757e-17)
(0 1.32317e-19 4.23413e-17)
(0 1.32768e-19 -4.24856e-17)
(0 1.33149e-19 0)
(0 -6.67288e-20 4.27064e-17)
(0 1.13638e-18 0)
(0 -5.35392e-19 0)
(0 2.94976e-17 0)
(0 -3.0569e-17 4.28566e-17)
(0 -5.35392e-19 4.28314e-17)
(0 9.35839e-19 0)
(0 -6.67288e-20 4.27064e-17)
(0 -2.66298e-19 0)
(0 -1.32768e-19 -4.24856e-17)
(0 -1.32317e-19 -4.23413e-17)
(0 -2.63598e-19 4.21757e-17)
(0 4.46146e-18 -8.39804e-17)
(0 -4.43976e-18 0)
(0 4.15646e-18 0)
(0 -3.87446e-18 0)
(0 3.5942e-18 0)
(0 -4.33639e-18 -4.08131e-17)
(0 -0 8.1078e-17)
(0 -0 -4.35238e-17)
(0 -2.73955e-19 -4.38328e-17)
(0 3.86139e-18 4.41302e-17)
(0 -0 -4.4414e-17)
(0 -4.46824e-18 -4.46824e-17)
(0 -2.80834e-19 0)
(0 -2.82282e-19 0)
(0 1.9852e-18 0)
(0 -2.42061e-18 0)
(0 -0 0)
(0 1.14669e-18 4.58676e-17)
(0 -1.14951e-18 0)
(0 5.03841e-19 -4.60655e-17)
(0 -5.76534e-19 0)
(0 3.53789e-17 0)
(0 -3.53789e-17 -4.61515e-17)
(0 -5.76534e-19 -4.61227e-17)
(0 6.47796e-19 -4.60655e-17)
(0 -1.07766e-18 0)
(0 1.43336e-18 4.58676e-17)
(0 -0 0)
(0 -2.27822e-18 0)
(0 2.5524e-18 -4.5376e-17)
(0 2.82282e-19 -4.51652e-17)
(0 2.80834e-19 8.98668e-17)
(0 -4.46824e-18 -4.46824e-17)
(0 -0 -4.4414e-17)
(0 4.96464e-18 4.41302e-17)
(0 -0 -4.38328e-17)
(0 -0 -4.35238e-17)
(0 -0 -4.67815e-17)
(0 5.00761e-18 4.71305e-17)
(0 2.47026e-34 0)
(0 -0 0)
(0 -9.31808e-18 0)
(0 4.83785e-18 0)
(0 3.04014e-19 0)
(0 -0 4.88824e-17)
(0 -2.30143e-18 0)
(0 2.31022e-18 -4.92846e-17)
(0 -1.23608e-18 0)
(0 -0 0)
(0 1.24174e-18 4.96695e-17)
(0 -3.88554e-20 -4.9735e-17)
(0 4.1157e-17 0)
(0 -4.11764e-17 0)
(0 3.88554e-20 -4.9735e-17)
(0 1.24174e-18 4.96695e-17)
(0 -0 0)
(0 -1.54511e-18 0)
(0 2.61825e-18 -4.92846e-17)
(0 -2.45486e-18 4.90971e-17)
(0 -0 0)
(0 -3.04014e-19 0)
(0 4.83785e-18 -4.83785e-17)
(0 -9.91924e-18 0)
(0 -0 0)
(0 -2.96669e-19 4.7467e-17)
(0 4.71305e-18 4.71305e-17)
(0 -0 -4.67815e-17)
(0 6.29305e-19 5.03444e-17)
(0 -0 0)
(0 3.19509e-19 0)
(0 -4.82689e-18 0)
(0 5.18334e-18 0)
(0 -5.21584e-18 0)
(0 5.24593e-18 0)
(0 2.63668e-18 0)
(0 -5.62902e-18 0)
(0 -1.6623e-19 5.31936e-17)
(0 2.50197e-18 0)
(0 -1.33807e-18 0)
(0 6.70431e-19 -5.36345e-17)
(0 1.04901e-18 5.37096e-17)
(0 4.71055e-17 0)
(0 -4.77563e-17 -5.37473e-17)
(0 9.65094e-19 1.07419e-16)
(0 6.70431e-19 -5.36345e-17)
(0 -1.33807e-18 0)
(0 3.00236e-18 0)
(0 1.6623e-19 5.31936e-17)
(0 -4.96678e-18 0)
(0 2.63668e-18 0)
(0 5.24593e-18 0)
(0 -5.21584e-18 0)
(0 5.18334e-18 -1.03667e-16)
(0 -5.47048e-18 0)
(0 3.19509e-19 -5.11214e-17)
(0 -0 0)
(0 -6.29305e-19 5.03444e-17)
(0 -6.78126e-19 5.42501e-17)
(0 5.81175e-18 0)
(0 -5.5133e-18 0)
(0 -3.47184e-19 5.55494e-17)
(0 -3.49655e-19 -5.59448e-17)
(0 -0 -5.63161e-17)
(0 3.54127e-19 5.66603e-17)
(0 3.20481e-18 0)
(0 -5.54666e-18 -5.72559e-17)
(0 3.0548e-18 -5.75021e-17)
(0 1.80346e-19 5.77108e-17)
(0 -1.44701e-18 0)
(0 1.45022e-18 0)
(0 4.53868e-20 0)
(0 5.42311e-17 0)
(0 -5.42084e-17 1.16277e-16)
(0 -4.53868e-20 -5.8095e-17)
(0 1.45022e-18 0)
(0 -1.44701e-18 0)
(0 -1.80346e-19 5.77108e-17)
(0 2.69541e-18 -5.75021e-17)
(0 -5.90451e-18 -5.72559e-17)
(0 2.49263e-18 0)
(0 -3.54127e-19 5.66603e-17)
(0 -0 -5.63161e-17)
(0 3.49655e-19 -5.59448e-17)
(0 3.47184e-19 5.55494e-17)
(0 -5.5133e-18 -5.5133e-17)
(0 5.12802e-18 -5.46988e-17)
(0 6.78126e-19 5.42501e-17)
(0 -0 -5.8542e-17)
(0 -0 0)
(0 -5.95482e-18 -5.95482e-17)
(0 6.0024e-18 -6.0024e-17)
(0 6.04765e-18 0)
(0 -9.51594e-18 6.0902e-17)
(0 2.68174e-18 0)
(0 -0 0)
(0 3.87385e-19 6.19816e-17)
(0 -0 6.2265e-17)
(0 1.56264e-18 -6.25055e-17)
(0 -3.13504e-18 0)
(0 1.57123e-18 0)
(0 -4.91786e-20 6.29487e-17)
(0 6.16616e-17 0)
(0 -6.16862e-17 -1.25997e-16)
(0 4.91786e-20 1.25897e-16)
(0 1.57123e-18 0)
(0 -3.13504e-18 0)
(0 1.56264e-18 0)
(0 -0 6.2265e-17)
(0 -3.87385e-19 6.19816e-17)
(0 -0 0)
(0 3.44795e-18 -6.1297e-17)
(0 -8.75466e-18 6.0902e-17)
(0 6.04765e-18 0)
(0 6.0024e-18 -6.0024e-17)
(0 -6.327e-18 -5.95482e-17)
(0 -0 0)
(0 -0 -5.8542e-17)
(0 -0 6.3271e-17)
(0 5.98637e-18 -6.38546e-17)
(0 -6.44213e-18 0)
(0 -6.09062e-18 0)
(0 6.54862e-18 0)
(0 3.71112e-18 0)
(0 -0 0)
(0 -3.76011e-18 0)
(0 -8.40249e-19 0)
(0 -0 6.75473e-17)
(0 -0 0)
(0 1.48862e-18 0)
(0 -1.81217e-18 -6.8223e-17)
(0 -0 -6.83384e-17)
(0 6.97984e-17 0)
(0 -6.97984e-17 6.83963e-17)
(0 -0 -1.36677e-16)
(0 -1.59898e-18 -6.8223e-17)
(0 1.91395e-18 0)
(0 -0 0)
(0 -0 6.75473e-17)
(0 8.40249e-19 0)
(0 -2.92453e-18 -6.68463e-17)
(0 -0 6.64302e-17)
(0 2.88643e-18 0)
(0 6.54862e-18 0)
(0 -6.9027e-18 6.49666e-17)
(0 -6.44213e-18 0)
(0 6.78455e-18 0)
(0 -0 6.3271e-17)
(0 -0 -3.42484e-17)
(0 -0 0)
(0 -0 0)
(0 6.60409e-18 0)
(0 -3.1081e-18 0)
(0 -4.02789e-18 0)
(0 -4.50828e-19 0)
(0 -3.6307e-18 3.6307e-17)
(0 -1.26716e-34 0)
(0 3.67132e-18 -3.67132e-17)
(0 2.30467e-19 0)
(0 4.62574e-19 -3.70059e-17)
(0 1.15955e-18 3.71056e-17)
(0 -8.71234e-19 0)
(0 7.87153e-17 0)
(0 -7.87153e-17 0)
(0 -9.87399e-19 0)
(0 6.9573e-19 0)
(0 -4.62574e-19 -3.70059e-17)
(0 -2.30467e-19 0)
(0 3.67132e-18 0)
(0 1.26716e-34 0)
(0 -3.6307e-18 3.6307e-17)
(0 4.50828e-19 0)
(0 -3.1328e-18 0)
(0 -3.99612e-18 -3.55211e-17)
(0 7.48463e-18 -3.52218e-17)
(0 -0 0)
(0 -0 0)
(0 -0 -3.42484e-17)
(0 7.42901e-18 -3.7145e-17)
(0 -7.97506e-18 0)
(0 -0 -3.79047e-17)
(0 3.82668e-18 0)
(0 -4.34397e-18 0)
(0 -3.89401e-18 -3.89401e-17)
(0 4.90563e-18 0)
(0 -0 0)
(0 4.97207e-19 0)
(0 -0 -7.99955e-17)
(0 -0 0)
(0 -0 0)
(0 -2.52846e-19 0)
(0 -1.26668e-19 4.05338e-17)
(0 8.86552e-17 0)
(0 -8.86552e-17 0)
(0 1.26668e-19 4.05338e-17)
(0 2.52846e-19 -4.04554e-17)
(0 -0 -4.0339e-17)
(0 -0 0)
(0 -0 -7.99955e-17)
(0 -4.97207e-19 3.97766e-17)
(0 -0 0)
(0 2.94338e-18 0)
(0 -3.89401e-18 -3.89401e-17)
(0 -3.37864e-18 3.8613e-17)
(0 3.82668e-18 3.82668e-17)
(0 -0 -7.58093e-17)
(0 -7.03682e-18 -3.75297e-17)
(0 7.42901e-18 -3.7145e-17)
(0 -0 -4.03675e-17)
(0 -0 0)
(0 -8.7647e-18 0)
(0 8.33312e-18 0)
(0 -5.25848e-19 0)
(0 1.06121e-18 0)
(0 -5.35049e-19 4.28039e-17)
(0 -0 0)
(0 -0 0)
(0 -0 0)
(0 -2.744e-19 4.3904e-17)
(0 1.92865e-18 0)
(0 -3.17832e-18 0)
(0 1.73094e-18 -4.4312e-17)
(0 9.90669e-17 4.43583e-17)
(0 -1.00176e-16 4.43583e-17)
(0 1.59246e-18 -8.8624e-17)
(0 -3.45469e-18 -4.42201e-17)
(0 2.4797e-18 -4.40835e-17)
(0 2.744e-19 4.3904e-17)
(0 2.73022e-19 0)
(0 -0 0)
(0 -0 0)
(0 5.35049e-19 0)
(0 -1.06121e-18 4.24485e-17)
(0 5.25848e-19 4.20678e-17)
(0 8.33312e-18 0)
(0 -7.73356e-18 0)
(0 -0 -4.08117e-17)
(0 -0 -4.03675e-17)
(0 8.79324e-18 0)
(0 -8.34029e-18 0)
(0 -3.93628e-18 0)
(0 4.54753e-18 0)
(0 5.16879e-18 -4.59448e-17)
(0 -5.21888e-18 4.639e-17)
(0 -4.68064e-18 -4.68064e-17)
(0 4.12909e-18 0)
(0 -2.67386e-18 0)
(0 2.39199e-18 4.78398e-17)
(0 -2.70559e-18 0)
(0 1.20777e-18 0)
(0 1.06033e-18 0)
(0 -7.59071e-20 0)
(0 1.11857e-16 -4.86351e-17)
(0 -1.11857e-16 -4.86351e-17)
(0 7.59071e-20 9.71611e-17)
(0 1.36328e-18 0)
(0 1.20777e-18 0)
(0 -2.40497e-18 -9.61987e-17)
(0 2.09299e-18 4.78398e-17)
(0 -2.07967e-18 -4.75353e-17)
(0 5.30883e-18 4.71896e-17)
(0 -4.68064e-18 -9.36128e-17)
(0 -4.05913e-18 4.639e-17)
(0 4.02017e-18 -4.59448e-17)
(0 4.54753e-18 -4.54753e-17)
(0 -5.06093e-18 4.4986e-17)
(0 -9.45232e-18 -4.44815e-17)
(0 8.79324e-18 0)
(0 6.00029e-19 4.80024e-17)
(0 9.72063e-18 -4.86031e-17)
(0 -1.04534e-17 4.91927e-17)
(0 -0 0)
(0 6.28958e-19 0)
(0 -0 0)
(0 6.41633e-19 0)
(0 -5.17828e-18 0)
(0 5.54533e-18 0)
(0 -3.28448e-19 0)
(0 6.6074e-19 5.28592e-17)
(0 3.31939e-19 -5.31102e-17)
(0 1.66567e-19 5.33013e-17)
(0 8.34846e-20 0)
(0 1.2555e-16 5.3495e-17)
(0 -1.2555e-16 5.3495e-17)
(0 -8.34846e-20 -1.6029e-16)
(0 -1.66567e-19 0)
(0 3.31939e-19 -5.31102e-17)
(0 -0 5.28592e-17)
(0 3.28448e-19 5.25517e-17)
(0 4.89294e-18 0)
(0 -5.17828e-18 5.17828e-17)
(0 -6.41633e-19 -5.13306e-17)
(0 -0 5.08401e-17)
(0 -6.28958e-19 0)
(0 -0 4.97656e-17)
(0 -9.22362e-18 4.91927e-17)
(0 9.72063e-18 -4.86031e-17)
(0 -6.00029e-19 4.80024e-17)
(0 9.85326e-18 0)
(0 -1.0651e-17 0)
(0 -0 0)
(0 -6.14504e-18 0)
(0 1.03637e-17 0)
(0 -6.28789e-18 0)
(0 -7.05923e-19 0)
(0 -0 0)
(0 -0 -5.74969e-17)
(0 3.62038e-19 0)
(0 2.18598e-18 0)
(0 -3.29583e-18 0)
(0 -1.83816e-19 0)
(0 6.4504e-19 -5.89751e-17)
(0 1.40284e-16 0)
(0 -1.41761e-16 0)
(0 8.29337e-19 5.89751e-17)
(0 1.83816e-19 0)
(0 -3.29583e-18 0)
(0 2.91465e-18 0)
(0 -3.62038e-19 0)
(0 -0 -5.74969e-17)
(0 -7.12635e-19 -5.70108e-17)
(0 7.05923e-19 0)
(0 -4.89058e-18 5.58924e-17)
(0 1.17455e-17 5.52731e-17)
(0 -4.77948e-18 -5.46226e-17)
(0 -0 -5.39477e-17)
(0 -1.0651e-17 0)
(0 1.1167e-17 0)
(0 -0 -5.77036e-17)
(0 -0 0)
(0 6.67725e-18 0)
(0 -5.26343e-18 0)
(0 -0 -6.09265e-17)
(0 7.70804e-19 0)
(0 7.7948e-19 0)
(0 7.87509e-19 0)
(0 -0 -6.35833e-17)
(0 -0 0)
(0 4.03371e-19 6.45394e-17)
(0 -1.82531e-18 -6.49e-17)
(0 2.03672e-18 6.51752e-17)
(0 1.02126e-19 0)
(0 1.58743e-16 0)
(0 -1.58794e-16 0)
(0 -1.02126e-19 0)
(0 1.22203e-18 6.51752e-17)
(0 -1.6225e-18 -6.49e-17)
(0 -0 6.45394e-17)
(0 -0 0)
(0 -0 -6.35833e-17)
(0 -0 1.26001e-16)
(0 -7.7948e-19 0)
(0 -7.70804e-19 -6.16643e-17)
(0 -0 -1.21853e-16)
(0 -6.76727e-18 -6.01535e-17)
(0 5.19342e-18 -5.93533e-17)
(0 -0 -5.85341e-17)
(0 -0 -5.77036e-17)
(0 7.94704e-19 0)
(0 -0 0)
(0 -0 6.55382e-17)
(0 -0 6.64938e-17)
(0 -0 0)
(0 -0 6.83053e-17)
(0 -8.64258e-19 0)
(0 -4.36971e-19 -6.99153e-17)
(0 3.53097e-18 0)
(0 -4.45269e-19 0)
(0 -7.62639e-18 0)
(0 5.64185e-18 0)
(0 6.29272e-35 0)
(0 -1.8194e-18 0)
(0 1.79106e-16 0)
(0 -1.79106e-16 7.28899e-17)
(0 -1.8194e-18 0)
(0 -6.29272e-35 0)
(0 5.41618e-18 0)
(0 -6.72917e-18 0)
(0 4.45269e-19 0)
(0 3.53097e-18 0)
(0 4.36971e-19 -6.99153e-17)
(0 8.64258e-19 6.91406e-17)
(0 -0 6.83053e-17)
(0 -0 0)
(0 -0 6.64938e-17)
(0 -0 0)
(0 -0 -6.45626e-17)
(0 -7.94704e-19 0)
(0 -1.75787e-18 -7.03149e-17)
(0 7.14952e-18 0)
(0 -7.26665e-18 0)
(0 -0 -7.38174e-17)
(0 7.49355e-18 0)
(0 -8.55095e-18 -7.60084e-17)
(0 8.1837e-18 7.7023e-17)
(0 -6.82205e-18 7.79663e-17)
(0 -0 0)
(0 -3.48198e-18 0)
(0 5.0152e-19 0)
(0 6.05853e-18 8.07804e-17)
(0 -2.2835e-18 0)
(0 -1.01836e-18 8.14689e-17)
(0 2.0373e-16 0)
(0 -2.01626e-16 -8.16089e-17)
(0 -1.01836e-18 -8.14689e-17)
(0 -1.77606e-18 0)
(0 6.05853e-18 8.07804e-17)
(0 1.392e-34 0)
(0 -4.47684e-18 0)
(0 -4.92659e-19 0)
(0 -8.77121e-18 7.79663e-17)
(0 7.22091e-18 0)
(0 -6.65074e-18 -7.60084e-17)
(0 7.49355e-18 7.49355e-17)
(0 -0 0)
(0 -7.26665e-18 -7.26665e-17)
(0 7.14952e-18 -7.14952e-17)
(0 1.75787e-18 -7.03149e-17)
(0 -5.85802e-18 -7.81069e-17)
(0 7.9532e-18 3.9766e-17)
(0 7.08324e-18 -4.04756e-17)
(0 -8.23505e-18 4.11753e-17)
(0 -9.4179e-18 0)
(0 1.91312e-17 4.25138e-17)
(0 -1.40194e-17 0)
(0 3.82525e-18 -4.37172e-17)
(0 -0 4.42473e-17)
(0 4.47191e-18 -4.47191e-17)
(0 -3.94845e-18 -4.51251e-17)
(0 2.84116e-19 0)
(0 1.14285e-18 0)
(0 -1.72076e-18 -4.58868e-17)
(0 2.30824e-16 0)
(0 -2.29674e-16 0)
(0 -1.72076e-18 -9.17736e-17)
(0 1.14285e-18 -4.5714e-17)
(0 -2.84116e-19 4.54586e-17)
(0 -5.64064e-18 -4.51251e-17)
(0 5.0309e-18 -4.47191e-17)
(0 1.10618e-18 4.42473e-17)
(0 4.91818e-18 -4.37172e-17)
(0 -1.18626e-17 0)
(0 1.48798e-17 4.25138e-17)
(0 -7.32503e-18 0)
(0 -8.23505e-18 4.11753e-17)
(0 8.09513e-18 -4.04756e-17)
(0 7.9532e-18 3.9766e-17)
(0 -9.76337e-18 -7.81069e-17)
(0 -9.80969e-18 1.74395e-16)
(0 -1.1117e-18 0)
(0 1.13342e-18 0)
(0 9.2394e-18 -4.6197e-17)
(0 1.17597e-18 4.70387e-17)
(0 -1.79445e-18 -4.78519e-17)
(0 -0 4.86259e-17)
(0 -0 0)
(0 -0 5.00129e-17)
(0 5.06045e-18 0)
(0 -5.75042e-18 0)
(0 -3.22093e-19 -5.15349e-17)
(0 -0 0)
(0 -4.88206e-19 5.20753e-17)
(0 2.63918e-16 0)
(0 -2.62613e-16 0)
(0 -8.13676e-19 1.04151e-16)
(0 -0 0)
(0 3.22093e-19 -5.15349e-17)
(0 -4.47255e-18 0)
(0 4.4279e-18 -5.06045e-17)
(0 -6.25161e-19 1.00026e-16)
(0 -0 4.93498e-17)
(0 -0 9.72518e-17)
(0 1.79445e-18 -9.57038e-17)
(0 -1.17597e-18 4.70387e-17)
(0 9.2394e-18 -9.2394e-17)
(0 -0 -4.53368e-17)
(0 1.1117e-18 4.44678e-17)
(0 -7.62976e-18 1.74395e-16)
(0 9.79121e-18 0)
(0 -8.75506e-18 0)
(0 -0 -5.11065e-17)
(0 9.78333e-18 -5.21778e-17)
(0 -1.13115e-17 0)
(0 6.10338e-18 0)
(0 -1.03553e-17 0)
(0 4.9127e-18 0)
(0 -0 0)
(0 -0 0)
(0 -3.28466e-18 0)
(0 3.31492e-18 -5.8932e-17)
(0 -0 0)
(0 -1.86331e-19 0)
(0 3.03084e-16 0)
(0 -3.03084e-16 0)
(0 1.86331e-19 0)
(0 -0 0)
(0 2.57827e-18 -5.8932e-17)
(0 -2.55473e-18 0)
(0 -0 -5.77416e-17)
(0 -0 5.69876e-17)
(0 6.31632e-18 -5.61451e-17)
(0 -1.17361e-17 -5.52285e-17)
(0 4.74707e-18 0)
(0 -9.98076e-18 -5.32307e-17)
(0 1.10878e-17 -5.21778e-17)
(0 -0 0)
(0 -1.12565e-17 5.00289e-17)
(0 8.56731e-18 0)
(0 1.03777e-17 -1.10695e-16)
(0 -1.06295e-17 5.66905e-17)
(0 1.16093e-17 -5.80464e-17)
(0 7.42518e-19 5.94014e-17)
(0 7.59251e-19 0)
(0 -1.93891e-17 0)
(0 6.32985e-18 -6.32985e-17)
(0 8.06007e-19 0)
(0 -6.55715e-18 -6.55715e-17)
(0 1.33104e-17 0)
(0 -6.74025e-18 0)
(0 -3.83098e-18 0)
(0 5.14863e-18 0)
(0 -2.58813e-18 0)
(0 3.53257e-16 0)
(0 -3.51473e-16 0)
(0 -2.58813e-18 -6.90168e-17)
(0 5.14863e-18 0)
(0 -2.97965e-18 6.81064e-17)
(0 -6.74025e-18 0)
(0 1.33104e-17 0)
(0 -6.55715e-18 -6.55715e-17)
(0 -8.06007e-19 6.44805e-17)
(0 6.32985e-18 0)
(0 -1.7838e-17 0)
(0 -1.5185e-18 0)
(0 -7.42518e-19 1.18803e-16)
(0 1.16093e-17 -5.80464e-17)
(0 -1.20467e-17 1.13381e-16)
(0 1.24532e-17 -1.10695e-16)
(0 -1.10395e-17 0)
(0 1.21486e-17 0)
(0 -0 6.65287e-17)
(0 1.45084e-17 -6.82748e-17)
(0 -1.40021e-17 7.00103e-17)
(0 -6.27484e-18 0)
(0 -0 0)
(0 1.49831e-17 0)
(0 -0 7.63622e-17)
(0 -7.28137e-18 0)
(0 -3.44775e-18 0)
(0 3.98753e-18 0)
(0 -0 0)
(0 -1.01221e-18 0)
(0 4.15539e-16 0)
(0 -4.13572e-16 0)
(0 -1.01221e-18 1.61954e-16)
(0 -0 0)
(0 3.98753e-18 0)
(0 -4.43283e-18 0)
(0 -8.25222e-18 0)
(0 -0 7.63622e-17)
(0 1.49831e-17 7.49157e-17)
(0 -0 -7.33565e-17)
(0 -8.06766e-18 -7.17125e-17)
(0 -1.31269e-17 7.00103e-17)
(0 1.28015e-17 -6.82748e-17)
(0 -0 0)
(0 1.37684e-17 0)
(0 -1.34052e-17 0)
(0 -9.07613e-19 0)
(0 -0 -1.12243e-16)
(0 -1.54202e-17 1.15651e-16)
(0 1.4888e-17 -7.94028e-17)
(0 -0 0)
(0 -0 0)
(0 8.6201e-18 4.31005e-17)
(0 -1.76634e-17 0)
(0 9.59356e-18 -9.02923e-17)
(0 -0 4.60431e-17)
(0 -0 4.68289e-17)
(0 -2.96777e-19 0)
(0 2.39961e-18 0)
(0 -2.41696e-18 0)
(0 4.95827e-16 0)
(0 -4.95827e-16 0)
(0 -2.56802e-18 -1.93356e-16)
(0 2.09966e-18 0)
(0 2.96777e-19 0)
(0 -0 4.68289e-17)
(0 -0 1.38129e-16)
(0 8.4649e-18 0)
(0 -1.76634e-17 0)
(0 8.6201e-18 -4.31005e-17)
(0 -0 0)
(0 -0 0)
(0 1.68731e-17 -1.58806e-16)
(0 -1.54202e-17 1.15651e-16)
(0 -0 -1.12243e-16)
(0 9.07613e-19 0)
(0 -0 0.231485)
(0 -1.75097e-17 0.251145)
(0 1.81205e-17 0.271166)
(0 -0 0.291393)
(0 -0 0.311628)
(0 -0 0.331634)
(0 -0 0.351129)
(0 -0 0.369793)
(0 1.02098e-17 0.387276)
(0 -6.27024e-18 0.403206)
(0 -5.68675e-18 0.41721)
(0 6.1431e-18 0.428927)
(0 -2.92786e-18 0.438034)
(0 -2.95321e-18 0.444265)
(0 6.03587e-16 0.447429)
(0 -6.03587e-16 0.447429)
(0 -2.76863e-18 0.444265)
(0 -2.56188e-18 0.438034)
(0 5.42038e-18 0.428927)
(0 -5.68675e-18 0.41721)
(0 -4.87685e-18 0.403206)
(0 1.15711e-17 0.387276)
(0 -0 0.369793)
(0 -0 0.351129)
(0 -0 0.331634)
(0 -0 0.311628)
(0 -0 0.291393)
(0 1.81205e-17 0.271166)
(0 -1.75097e-17 0.251145)
(0 -0 0.231485)
(0 -5.72631e-20 -1.83242e-17)
(0 6.11054e-20 0)
(0 4.17617e-18 0)
(0 -0 0)
(0 -0 0)
(0 -3.19379e-19 0)
(0 6.84425e-19 0)
(0 -3.67043e-19 0)
(0 -0 0)
(0 -0 3.38896e-17)
(0 3.64734e-18 -3.64734e-17)
(0 4.91328e-19 -3.93062e-17)
(0 4.24196e-18 0)
(0 -1.14627e-18 0)
(0 5.58482e-18 2.48214e-17)
(0 -5.38476e-18 -2.69238e-17)
(0 -0 0)
(0 -0 0)
(0 -0 3.4808e-17)
(0 -0 -3.81126e-17)
(0 -4.18577e-18 0)
(0 -0 0)
(0 -0 0)
(0 -0 0)
(0 -1.58298e-18 -6.33191e-17)
(0 -5.33448e-18 7.11264e-17)
(0 1.0056e-18 0)
(0 -9.17404e-18 0)
(0 -1.1887e-17 0)
(0 1.23201e-17 0.218764)
(0 -0 0)
(0 -0 0)
(0 -4.28134e-18 2.20973e-17)
(0 -1.47642e-19 -2.36228e-17)
(0 -0 2.52748e-17)
(0 -2.70666e-18 0)
(0 3.62663e-19 0)
(0 -0 -3.11311e-17)
(0 -8.3601e-19 0)
(0 4.4954e-19 0)
(0 -3.87252e-18 3.87252e-17)
(0 -0 0)
(0 -4.50911e-18 0)
(0 -6.0963e-19 0)
(0 -4.62368e-18 2.6421e-17)
(0 6.45332e-18 0)
(0 -1.56002e-18 3.12004e-17)
(0 8.50475e-19 -3.4019e-17)
(0 -3.71869e-18 0)
(0 -1.01913e-18 4.07653e-17)
(0 5.60377e-18 0)
(0 4.94769e-18 -4.94769e-17)
(0 6.85336e-18 0)
(0 -7.62971e-18 0)
(0 -0 -6.83163e-17)
(0 -0 0)
(0 -0 8.72965e-17)
(0 9.99242e-18 0)
(0 2.31238e-17 -1.15619e-16)
(0 -2.71185e-17 0.211184)
(0 -0 0)
(0 6.83353e-20 0)
(0 -2.40952e-18 -2.33651e-17)
(0 -2.65471e-18 0)
(0 3.34266e-19 0)
(0 2.68562e-18 0)
(0 -0 0)
(0 4.12162e-19 3.2973e-17)
(0 3.10043e-18 -3.54335e-17)
(0 4.76545e-19 0)
(0 -5.1339e-19 0)
(0 -0 0)
(0 -0 0)
(0 -0 2.59062e-17)
(0 -5.61755e-18 -2.80877e-17)
(0 7.62826e-19 -3.0513e-17)
(0 -8.3049e-19 -6.64392e-17)
(0 4.53159e-18 3.62527e-17)
(0 1.98339e-18 -3.96678e-17)
(0 1.08832e-18 0)
(0 -4.79329e-18 0)
(0 -5.29752e-18 -5.29752e-17)
(0 -5.87973e-18 0)
(0 6.5578e-18 0)
(0 -7.35548e-18 0)
(0 1.7648e-17 8.30493e-17)
(0 -1.18136e-18 9.45086e-17)
(0 1.35716e-18 0)
(0 -1.49853e-17 0)
(0 1.5814e-17 0.201742)
(0 3.37947e-20 0)
(0 -3.60905e-20 0)
(0 2.46862e-18 0)
(0 2.64053e-18 2.64053e-17)
(0 -0 -2.82689e-17)
(0 -0 3.02923e-17)
(0 3.24929e-18 0)
(0 -0 0)
(0 -7.50167e-18 0)
(0 -4.54188e-18 -4.03722e-17)
(0 1.08782e-18 0)
(0 -5.8706e-19 0)
(0 -6.34626e-19 2.5385e-17)
(0 6.87211e-19 0)
(0 5.96426e-18 -2.98213e-17)
(0 4.05224e-18 0)
(0 -8.82985e-19 0)
(0 -0 3.85756e-17)
(0 -1.05619e-18 0)
(0 1.16028e-18 4.64111e-17)
(0 5.11603e-18 0)
(0 -0 0)
(0 -7.07967e-18 6.29304e-17)
(0 -6.15192e-18 7.03076e-17)
(0 7.90168e-18 0)
(0 -0 0)
(0 8.92962e-18 -1.02053e-16)
(0 1.47055e-18 0)
(0 6.86614e-18 0)
(0 8.143e-18 0.190499)
(0 -0 2.28248e-17)
(0 -0 0)
(0 -0 0)
(0 -0 0)
(0 -0 0)
(0 -0 0)
(0 -0 -3.4341e-17)
(0 -0 3.68866e-17)
(0 3.96672e-18 0)
(0 4.00418e-18 4.27113e-17)
(0 2.5904e-18 0)
(0 -0 0)
(0 -0 -2.68898e-17)
(0 3.2774e-18 2.91324e-17)
(0 -3.95276e-19 0)
(0 -3.43961e-18 0)
(0 3.74994e-18 3.74994e-17)
(0 -8.19732e-18 -4.09866e-17)
(0 -0 0)
(0 -0 -4.93972e-17)
(0 5.45082e-18 -5.45082e-17)
(0 -0 6.0391e-17)
(0 5.88154e-18 0)
(0 9.4018e-19 0)
(0 -1.05857e-18 -8.46856e-17)
(0 -8.40432e-18 9.60493e-17)
(0 -5.49485e-18 0)
(0 -0 0)
(0 -7.44748e-18 0)
(0 -8.87856e-18 0.177576)
(0 -2.40721e-18 0)
(0 2.61194e-18 0)
(0 -4.29648e-20 0)
(0 9.19547e-20 2.94255e-17)
(0 -0 0)
(0 -1.05595e-19 -3.37902e-17)
(0 -3.85312e-18 0)
(0 4.87043e-19 0)
(0 1.83369e-18 0)
(0 -0 0)
(0 -2.43453e-18 0)
(0 3.28721e-19 0)
(0 -7.11321e-19 0)
(0 -5.78237e-18 0)
(0 -0 3.3491e-17)
(0 4.55602e-19 0)
(0 -4.96998e-19 0)
(0 4.89211e-18 0)
(0 -5.36605e-18 0)
(0 -6.56117e-19 0)
(0 -1.15947e-17 0)
(0 8.03719e-19 0)
(0 8.95646e-19 0)
(0 8.02879e-18 0)
(0 -5.65913e-18 0)
(0 -5.14484e-18 -1.02897e-16)
(0 -5.9005e-18 1.1801e-16)
(0 -6.84366e-18 -1.36873e-16)
(0 -8.0503e-18 0)
(0 9.64358e-18 0.163156)
(0 2.53729e-18 0)
(0 -2.6688e-18 0)
(0 -2.85398e-18 0)
(0 -3.10313e-18 0)
(0 -1.76606e-18 0)
(0 -1.89382e-18 0)
(0 1.19585e-19 0)
(0 -0 4.11247e-17)
(0 -2.21245e-18 -4.4249e-17)
(0 -0 0)
(0 -2.57168e-18 0)
(0 -0 5.5576e-17)
(0 3.00758e-18 0)
(0 3.26108e-18 0)
(0 -0 0)
(0 -0 0)
(0 -4.73647e-18 0)
(0 5.75912e-19 0)
(0 1.01137e-17 0)
(0 3.48044e-18 5.56871e-17)
(0 8.46377e-18 0)
(0 -0 0)
(0 -4.76423e-19 0)
(0 5.34501e-19 -8.55202e-17)
(0 4.82931e-18 0)
(0 5.49752e-18 0)
(0 -7.89776e-19 0)
(0 8.26564e-18 0)
(0 8.67135e-18 0)
(0 -1.0433e-17 0.147467)
(0 -0 -2.67301e-17)
(0 1.47291e-18 0)
(0 2.95973e-18 0)
(0 3.42381e-18 0)
(0 -2.19014e-19 0)
(0 1.99663e-18 3.75837e-17)
(0 -0 0)
(0 -0 -4.3374e-17)
(0 -0 0)
(0 -2.67233e-18 0)
(0 2.88387e-18 0)
(0 -0 -5.86726e-17)
(0 -0 3.17609e-17)
(0 2.15307e-19 0)
(0 3.744e-18 0)
(0 2.03903e-18 -4.07806e-17)
(0 -2.78298e-19 0)
(0 -0 0)
(0 -5.35363e-18 0)
(0 -5.89912e-18 0)
(0 -2.85476e-18 -6.52518e-17)
(0 -4.5308e-19 7.24927e-17)
(0 -5.05891e-19 0)
(0 -3.97713e-18 0)
(0 -0 0)
(0 -0 0)
(0 -6.32512e-18 0)
(0 -7.86345e-18 0)
(0 -5.81726e-19 0)
(0 1.12418e-17 0.13077)
(0 1.40733e-18 0)
(0 -1.50413e-18 3.00826e-17)
(0 -5.02787e-20 0)
(0 5.38286e-20 -3.44503e-17)
(0 1.84586e-18 0)
(0 1.98001e-18 0)
(0 2.1262e-18 0)
(0 -1.42862e-19 0)
(0 -2.30664e-18 0)
(0 2.48617e-18 5.30382e-17)
(0 1.78902e-19 -5.72487e-17)
(0 -3.09451e-18 3.09451e-17)
(0 -1.67555e-18 -3.35109e-17)
(0 -0 0)
(0 -5.92878e-18 0)
(0 -2.15329e-18 0)
(0 2.35199e-18 4.70399e-17)
(0 2.5761e-18 0)
(0 2.83025e-18 0)
(0 -0 0)
(0 -0 0)
(0 -4.79882e-19 0)
(0 -4.28981e-18 0)
(0 9.64422e-18 0)
(0 6.82325e-19 0)
(0 -3.89439e-19 0)
(0 7.18534e-18 0)
(0 1.31106e-17 0)
(0 -0 0)
(0 -1.80982e-17 0.113346)
(0 -0 0)
(0 1.58331e-18 0)
(0 -0 -3.38754e-17)
(0 -1.81354e-18 3.62709e-17)
(0 1.94362e-18 -3.88723e-17)
(0 -2.01996e-18 0)
(0 -2.30932e-18 0)
(0 1.20388e-18 0)
(0 2.59206e-18 0)
(0 -1.39712e-18 0)
(0 -0 6.03314e-17)
(0 3.26174e-18 -3.26174e-17)
(0 -1.98725e-18 3.53289e-17)
(0 4.79222e-19 -3.83378e-17)
(0 1.56332e-18 0)
(0 2.83969e-19 0)
(0 -0 0)
(0 -5.09907e-18 -5.43901e-17)
(0 -3.17569e-18 5.97777e-17)
(0 -4.12057e-19 0)
(0 2.28131e-19 0)
(0 -2.5375e-19 0)
(0 4.5395e-18 0)
(0 -5.1065e-18 0)
(0 3.61594e-19 1.1571e-16)
(0 -0 0)
(0 -0 0)
(0 -8.92808e-18 0)
(0 -5.30798e-18 -2.12319e-16)
(0 -0 0.09548)
(0 -1.5646e-18 0)
(0 -1.65948e-18 0)
(0 9.19026e-19 3.56471e-17)
(0 1.90854e-18 0)
(0 -1.05476e-18 0)
(0 -1.09736e-18 0)
(0 -0 -4.71457e-17)
(0 -1.34663e-18 0)
(0 -1.2793e-18 5.45836e-17)
(0 1.47121e-18 0)
(0 -0 -6.3539e-17)
(0 -1.71782e-18 3.43565e-17)
(0 1.16308e-19 0)
(0 1.89352e-18 0)
(0 -2.1967e-18 0)
(0 -0 0)
(0 -2.61695e-18 -5.2339e-17)
(0 3.04723e-18 5.73596e-17)
(0 1.37943e-18 0)
(0 3.47856e-18 0)
(0 -0 -7.70632e-17)
(0 2.14384e-18 0)
(0 -0 0)
(0 3.37413e-19 0)
(0 2.67778e-18 -1.22413e-16)
(0 -0 0)
(0 3.79231e-18 0)
(0 2.96083e-19 0)
(0 5.64223e-18 0)
(0 -0 0.0774432)
(0 -0 0)
(0 8.76182e-19 0)
(0 -9.37435e-19 0)
(0 9.72493e-19 0)
(0 -2.15205e-18 0)
(0 1.19063e-18 -4.61819e-17)
(0 3.87547e-20 4.9606e-17)
(0 -4.1677e-20 0)
(0 1.43604e-18 -5.74415e-17)
(0 -1.54838e-18 6.19351e-17)
(0 -0 0)
(0 1.92132e-18 0)
(0 -1.10203e-18 0)
(0 -2.12667e-18 0)
(0 2.31331e-18 4.62661e-17)
(0 -0 0)
(0 -0 0)
(0 -1.88862e-19 0)
(0 2.07674e-19 6.64558e-17)
(0 1.71882e-18 -7.33362e-17)
(0 2.15837e-18 0)
(0 -2.26121e-18 9.04484e-17)
(0 -2.53045e-18 0)
(0 -3.02747e-18 0)
(0 -4.64619e-18 0)
(0 -2.31167e-19 0)
(0 -4.01079e-18 0)
(0 4.70166e-18 0)
(0 1.86893e-19 0)
(0 3.87602e-18 0.0594859)
(0 -0 -3.44725e-17)
(0 -9.21323e-19 0)
(0 1.54027e-20 0)
(0 -1.6e-18 4.22268e-17)
(0 1.69741e-18 4.52641e-17)
(0 1.89725e-20 0)
(0 6.31788e-19 -5.21735e-17)
(0 -0 0)
(0 -0 6.04214e-17)
(0 1.62881e-18 -6.51523e-17)
(0 -8.79468e-19 -7.03575e-17)
(0 -1.01071e-18 0)
(0 1.09513e-18 4.12282e-17)
(0 1.04899e-18 -4.4757e-17)
(0 -0 -4.86898e-17)
(0 8.29539e-20 0)
(0 -6.34781e-19 0)
(0 -8.94729e-19 0)
(0 -2.62401e-18 -6.99735e-17)
(0 -1.93078e-18 7.72313e-17)
(0 -2.13972e-18 0)
(0 -1.34005e-18 0)
(0 3e-18 0)
(0 4.41168e-18 0)
(0 3.3019e-18 0)
(0 -1.21941e-19 0)
(0 2.3991e-18 0)
(0 1.65546e-19 0)
(0 -1.97592e-19 2.52918e-16)
(0 3.86151e-18 0.0418271)
(0 -1.76942e-21 0)
(0 5.67495e-21 3.8741e-17)
(0 -4.04804e-21 -4.14519e-17)
(0 5.54904e-19 -4.43923e-17)
(0 -5.94835e-19 0)
(0 -3.19146e-19 0)
(0 -3.42838e-19 0)
(0 -0 0)
(0 -0 0)
(0 2.67607e-20 0)
(0 1.3294e-18 7.39838e-17)
(0 5.31428e-19 0)
(0 3.38731e-20 0)
(0 -6.25164e-19 0)
(0 -0 5.12104e-17)
(0 3.49018e-19 0)
(0 3.3387e-19 0)
(0 8.88972e-19 0)
(0 9.20249e-19 7.36199e-17)
(0 -5.07905e-19 -8.12647e-17)
(0 -0 0)
(0 1.25369e-18 0)
(0 -0 0)
(0 -8.89457e-19 0)
(0 -2.57992e-18 0)
(0 -0 1.6442e-16)
(0 -2.37937e-18 -1.90349e-16)
(0 8.72604e-20 2.23387e-16)
(0 -1.04211e-19 0)
(0 -0 0.0246502)
(0 -0 0)
(0 -0 0)
(0 -2.12723e-21 0)
(0 -0 4.66566e-17)
(0 -2.44212e-21 5.00146e-17)
(0 3.45916e-19 0)
(0 -3.60339e-19 5.76543e-17)
(0 -8.60537e-35 0)
(0 -9.26699e-35 0)
(0 -7.03206e-21 -7.20083e-17)
(0 -4.93633e-19 0)
(0 5.33965e-19 -4.206e-17)
(0 -0 0)
(0 -6.2818e-19 0)
(0 -1.49419e-34 0)
(0 -3.55444e-19 0)
(0 4.13677e-19 0)
(0 -0 -7.03711e-17)
(0 -1.51178e-20 0)
(0 5.17345e-19 0)
(0 1.84978e-20 0)
(0 2.05993e-20 0)
(0 -0 1.18085e-16)
(0 -8.83513e-19 -1.33047e-16)
(0 9.73398e-19 0)
(0 -0 0)
(0 1.95585e-20 0)
(0 -4.59154e-20 0)
(0 -0 -2.80826e-16)