/*--------------------------------*- C++ -*----------------------------------*\
  =========                 |
  \\      /  F ield         | OpenFOAM: The Open Source CFD Toolbox
   \\    /   O peration     | Website:  https://openfoam.org
    \\  /    A nd           | Version:  12
     \\/     M anipulation  |
\*---------------------------------------------------------------------------*/
FoamFile
{
    format      ascii;
    class       volScalarField;
    location    "400";
    object      p;
}
// * * * * * * * * * * * * * * * * * * * * * * * * * * * * * * * * * * * * * //

dimensions      [0 2 -2 0 0 0 0];

internalField   nonuniform List<scalar> 
6750
(
0.021641
0.021619
0.0215895
0.021426
0.0203976
0.0231593
0.0231229
0.0229955
0.0227296
0.0223703
0.0249521
0.0248929
0.0247623
0.0245643
0.0244113
0.0268327
0.0267388
0.0266145
0.0264741
0.0263973
0.0286998
0.0285619
0.0284278
0.0283153
0.0282765
0.0304736
0.0302872
0.0301324
0.0300297
0.0300084
0.0321057
0.0318696
0.0316901
0.0315903
0.0315774
0.0335669
0.0332817
0.0330775
0.0329785
0.0329708
0.0348387
0.0345069
0.03428
0.0341817
0.0341777
0.0359106
0.0355363
0.0352899
0.0351929
0.0351915
0.0367794
0.0363679
0.0361058
0.0360108
0.0360113
0.0374482
0.0370058
0.0367325
0.0366399
0.0366414
0.0379264
0.0374593
0.0371799
0.0370896
0.0370914
0.0382281
0.0377421
0.0374629
0.0373738
0.0373749
0.0383664
0.0378748
0.0376008
0.0375093
0.0375082
0.0383664
0.0378748
0.0376008
0.0375093
0.0375082
0.0382281
0.0377421
0.0374629
0.0373738
0.0373749
0.0379264
0.0374593
0.0371799
0.0370896
0.0370914
0.0374482
0.0370058
0.0367325
0.0366399
0.0366414
0.0367793
0.0363679
0.0361058
0.0360108
0.0360112
0.0359106
0.0355363
0.0352898
0.0351929
0.0351915
0.0348387
0.0345069
0.03428
0.0341817
0.0341776
0.0335669
0.0332817
0.0330775
0.0329785
0.0329708
0.0321057
0.0318696
0.0316901
0.0315902
0.0315773
0.0304736
0.0302872
0.0301324
0.0300297
0.0300083
0.0286997
0.0285618
0.0284278
0.0283152
0.0282765
0.0268327
0.0267387
0.0266145
0.0264741
0.0263973
0.0249521
0.0248929
0.0247623
0.0245642
0.0244113
0.0231593
0.0231228
0.0229954
0.0227296
0.0223702
0.0216409
0.0216189
0.0215895
0.021426
0.0203975
0.0142187
0.0148113
0.0162796
0.0173646
0.018151
0.0187759
0.0192657
0.0196316
0.0199016
0.020086
0.020148
0.0201617
0.0200991
0.0199563
0.019732
0.0194225
0.0190249
0.0185421
0.0179773
0.0173306
0.0165964
0.0158794
0.0151244
0.0143467
0.0135663
0.0127961
0.0120455
0.0113293
0.0106575
0.00997486
0.0181284
0.018924
0.0197238
0.0201246
0.0203534
0.0204947
0.0205506
0.0205301
0.0204622
0.020344
0.0201343
0.0199472
0.0197418
0.019521
0.0192833
0.0190197
0.0187177
0.0183664
0.0179549
0.0174804
0.0169609
0.0163275
0.015663
0.0149583
0.0142214
0.0134639
0.0126937
0.0119253
0.011199
0.0104946
0.0206089
0.0207925
0.0211074
0.0212613
0.021337
0.0213452
0.0212738
0.0211336
0.0209458
0.020675
0.0203254
0.0199902
0.019627
0.0192468
0.0188556
0.0184533
0.0180365
0.0176
0.0171381
0.0166462
0.016123
0.015568
0.0149877
0.0143815
0.013754
0.0131114
0.0124546
0.0117944
0.0112178
0.0108008
0.0220518
0.0218276
0.0219564
0.0220392
0.0220483
0.0219809
0.021832
0.0216185
0.0213493
0.020955
0.0205088
0.0200494
0.0195479
0.0190209
0.0184802
0.0179337
0.0173868
0.0168424
0.0163014
0.0157624
0.0152238
0.0146895
0.014156
0.0136203
0.0130824
0.0125425
0.0119934
0.0114378
0.0110049
0.0109227
0.0231423
0.0227702
0.0228167
0.0228288
0.0227545
0.0225997
0.0223648
0.0220653
0.021699
0.0211891
0.0206468
0.0200672
0.0194402
0.0187858
0.0181193
0.0174539
0.0168009
0.0161684
0.0155615
0.0149821
0.0144294
0.0139027
0.0133986
0.0129123
0.0124401
0.0119781
0.0115127
0.0110372
0.0107126
0.0109347
0.0240894
0.0236782
0.02366
0.0235919
0.0234316
0.0231903
0.0228691
0.02248
0.0220064
0.0213913
0.020749
0.0200536
0.0193098
0.0185393
0.0177607
0.0169912
0.0162459
0.0155367
0.0148713
0.0142534
0.0136832
0.0131578
0.0126729
0.0122221
0.0117994
0.0113984
0.0110002
0.0105907
0.0103566
0.0108514
0.0249273
0.0245222
0.0244458
0.0243011
0.0240619
0.0237398
0.0233368
0.0228613
0.0222751
0.0215662
0.0208238
0.0200186
0.0191648
0.0182862
0.0174038
0.0165381
0.0157076
0.0149265
0.0142049
0.0135476
0.0129554
0.0124249
0.0119505
0.0115246
0.0111396
0.010787
0.0104437
0.0100904
0.00993627
0.0106728
0.0256765
0.0253075
0.0251807
0.0249643
0.0246509
0.0242511
0.0237701
0.0232101
0.0225108
0.0217182
0.0208757
0.0199654
0.0190077
0.0180271
0.0170475
0.016092
0.0151812
0.0143319
0.0135556
0.0128582
0.0122406
0.0116996
0.0112286
0.0108189
0.0104616
0.0101467
0.00984743
0.00954102
0.00945794
0.0104025
0.0263589
0.0260475
0.0258765
0.0255912
0.0252059
0.0247311
0.0241746
0.0235256
0.0227221
0.0218483
0.0209069
0.0198958
0.0188388
0.0177616
0.0166901
0.0156496
0.0146629
0.0137483
0.0129185
0.0121804
0.0115352
0.0109793
0.0105057
0.0101049
0.00976719
0.00948091
0.00921603
0.00894835
0.00892824
0.0100464
0.0269916
0.0267523
0.0265417
0.026189
0.0257335
0.0251872
0.0245546
0.0238086
0.0229154
0.0219571
0.0209192
0.0198112
0.0186588
0.0174889
0.0163295
0.0152078
0.0141481
0.0131702
0.0122879
0.0115084
0.0108334
0.0102592
0.00977818
0.00938028
0.00905509
0.00878974
0.0085512
0.00831518
0.0083513
0.00961059
0.0275868
0.0274298
0.0271831
0.0267634
0.0262381
0.0256222
0.0249133
0.0240664
0.0230936
0.0220479
0.0209154
0.0197131
0.018468
0.0172083
0.0159638
0.0147633
0.0136326
0.0125926
0.0116578
0.0108362
0.0101294
0.00953365
0.00904101
0.00864094
0.00832247
0.00807152
0.00785242
0.00764211
0.00772877
0.00910024
0.0281549
0.0280872
0.0278073
0.0273203
0.0267251
0.0260418
0.0252529
0.0243067
0.0232589
0.0221236
0.0208976
0.0196027
0.0182665
0.0169188
0.0155908
0.0143129
0.0131122
0.0120103
0.0110227
0.0101577
0.00941695
0.00879672
0.00828875
0.00788209
0.0075653
0.00732314
0.00711757
0.00692784
0.00706021
0.00851896
0.0287055
0.0287318
0.0284215
0.0278674
0.0272036
0.0264487
0.0255725
0.0245391
0.0234128
0.0221865
0.0208678
0.019481
0.0180544
0.0166193
0.0152084
0.0138534
0.0125825
0.0114184
0.0103769
0.00946668
0.00868973
0.0080421
0.00751527
0.007098
0.00677839
0.00654008
0.00634284
0.00616928
0.00634316
0.00786858
0.0292483
0.0293702
0.0290324
0.0284109
0.0276782
0.0268499
0.0258796
0.0247679
0.0235574
0.0222391
0.0208276
0.0193484
0.0178311
0.0163082
0.014814
0.0133813
0.0120393
0.0108115
0.00971429
0.00875677
0.00794095
0.00726282
0.00671366
0.00628192
0.00595534
0.00571635
0.00552279
0.00536144
0.00557316
0.00714881
0.0297907
0.0300119
0.029648
0.0289586
0.0281563
0.0272495
0.0261834
0.0249958
0.0236964
0.0222843
0.0207786
0.0192056
0.0175961
0.015984
0.0144049
0.0128927
0.0114777
0.010184
0.00902859
0.00802094
0.00716315
0.00645115
0.00587603
0.00542599
0.00508839
0.00484443
0.00465019
0.00449742
0.00474368
0.00635696
0.03034
0.0306682
0.0302808
0.029523
0.028644
0.027648
0.0264953
0.025226
0.023833
0.0223246
0.0207221
0.0190528
0.0173484
0.0156445
0.0139777
0.0123833
0.0108922
0.0095295
0.00831267
0.00725141
0.00634801
0.00559835
0.00499335
0.004521
0.00416827
0.00391509
0.00371591
0.00356818
0.003846
0.00548764
0.0309062
0.0313515
0.0309421
0.0301127
0.0291506
0.0280557
0.026822
0.025462
0.0239709
0.0223625
0.0206594
0.0188897
0.0170866
0.0152869
0.0135286
0.0118479
0.0102768
0.00884095
0.00755847
0.00643934
0.00548601
0.00469433
0.00405508
0.00355607
0.00318388
0.00291707
0.00270862
0.00256234
0.00286887
0.00453245
0.0315062
0.0320753
0.0316457
0.030735
0.02968
0.0284879
0.0271681
0.0257092
0.0241143
0.0224005
0.0205913
0.0187158
0.0168086
0.0149078
0.0130527
0.0112804
0.00962405
0.00810988
0.00675653
0.00557438
0.004566
0.00372726
0.0030488
0.00251828
0.00212186
0.00183666
0.00161434
0.00146568
0.0017981
0.00347944
0.0321637
0.0328497
0.0324022
0.0314046
0.0302421
0.0289562
0.0275386
0.0259727
0.0242672
0.022441
0.0205184
0.0185299
0.0165115
0.0145027
0.0125439
0.0106734
0.0089251
0.00732611
0.00589556
0.00464416
0.00357468
0.00268296
0.00195956
0.00139197
0.000965951
0.000657089
0.000415796
0.000260483
0.000615861
0.00231245
0.0328976
0.0336939
0.0332293
0.032134
0.0308545
0.0294695
0.0279423
0.0262599
0.0244346
0.0224863
0.0204408
0.01833
0.0161913
0.0140656
0.0119944
0.0100172
0.00816882
0.00647709
0.00496164
0.00363355
0.00249574
0.00154409
0.000769042
0.000157964
-0.000303862
-0.000642446
-0.00090851
-0.00107541
-0.000700388
0.00101006
0.0337334
0.0346412
0.0341483
0.0329353
0.0315403
0.030041
0.0283903
0.026579
0.0246213
0.0225386
0.0203579
0.0181128
0.0158421
0.0135881
0.0113937
0.00929946
0.00734098
0.00554684
0.00393722
0.00252351
0.00130881
0.000288978
-0.00054563
-0.00120777
-0.00171268
-0.00208807
-0.0023857
-0.00257008
-0.00217938
-0.000456004
0.0347123
0.0357134
0.0351795
0.0338434
0.0323209
0.0306868
0.0288956
0.0269391
0.0248327
0.0225994
0.0202677
0.0178729
0.0154555
0.0130591
0.010728
0.00850374
0.00642287
0.0045146
0.0027996
0.00128956
-1.23027e-05
-0.00111015
-0.00201373
-0.00273595
-0.00329261
-0.00371323
-0.00405053
-0.0042596
-0.00385831
-0.00212319
0.0358806
0.0369553
0.0363634
0.0348957
0.0332203
0.0314276
0.029474
0.0273507
0.0250742
0.022669
0.020166
0.0176019
0.015019
0.0124625
0.00997778
0.0076076
0.00538927
0.00335259
0.00151863
-0.000100689
-0.00150208
-0.00268976
-0.00367362
-0.00446676
-0.00508563
-0.00556164
-0.00594846
-0.00619119
-0.00578621
-0.0040418
0.0373063
0.0384275
0.0377603
0.0361332
0.0342719
0.0322904
0.0301452
0.0278261
0.0253508
0.0227462
0.020045
0.0172863
0.014514
0.0117748
0.00911547
0.00657958
0.00420519
0.00202257
5.30411e-05
-0.00169134
-0.0032073
-0.00449919
-0.00557711
-0.00645437
-0.00714818
-0.00769201
-0.00814041
-0.00842819
-0.00802923
-0.00628082
0.0391021
0.0402237
0.0394421
0.0376106
0.0355215
0.0333107
0.0309337
0.0283792
0.0256667
0.0228256
0.0198913
0.0169048
0.0139121
0.0109614
0.0081006
0.00537414
0.00282048
0.000470134
-0.00165551
-0.00354446
-0.00519357
-0.00660744
-0.0077964
-0.0087741
-0.00955861
-0.0101856
-0.0107105
-0.0110579
-0.0106793
-0.00893776
0.0413954
0.0424677
0.0415087
0.0394116
0.037036
0.034538
0.0318723
0.0290272
0.0260243
0.0228962
0.019681
0.0164224
0.0131683
0.00996851
0.00687175
0.00392291
0.00116049
-0.00138515
-0.0036929
-0.00575105
-0.00755678
-0.00911497
-0.0104363
-0.0115348
-0.0124295
-0.0131583
-0.0137777
-0.0142034
-0.0138666
-0.0121532
0.0444419
0.0453533
0.0441161
0.0416633
0.0389144
0.0360437
0.0330058
0.0297897
0.02642
0.0229333
0.0193711
0.0157798
0.0122093
0.00871049
0.00533249
0.00211982
-0.000889755
-0.00366677
-0.00619091
-0.00845114
-0.0104451
-0.0121779
-0.0136605
-0.0149073
-0.0159382
-0.016793
-0.0175291
-0.0180563
-0.0177947
-0.0161501
0.0486241
0.0491631
0.0474719
0.0445264
0.0412784
0.0379111
0.034381
0.0306794
0.0268353
0.0228901
0.0188896
0.0148833
0.0109229
0.00705965
0.00334196
-0.000187303
-0.00349245
-0.00654617
-0.00932994
-0.0118339
-0.014057
-0.0160047
-0.0176879
-0.0191212
-0.0203251
-0.0213401
-0.0222234
-0.0228853
-0.0227573
-0.021267
0.0548142
0.0546062
0.05217
0.0485238
0.0445701
0.0404816
0.0362268
0.031811
0.0272751
0.02267
0.0180486
0.0134649
0.00897203
0.00462023
0.000454686
-0.00348594
-0.00717056
-0.010576
-0.0136863
-0.0164922
-0.0189957
-0.0212156
-0.0231476
-0.0248062
-0.0262128
-0.0274053
-0.0284368
-0.029233
-0.0293016
-0.0281323
0.0656217
0.0637269
0.0597361
0.0548593
0.0497417
0.0444796
0.0390697
0.0335473
0.0279704
0.0223993
0.0168913
0.0114997
0.00627225
0.00125024
-0.00353194
-0.00804691
-0.0122738
-0.0161981
-0.0198114
-0.0231113
-0.0260941
-0.0287475
-0.0310973
-0.0331518
-0.034922
-0.0364337
-0.037732
-0.0388062
-0.0393606
-0.0388408
0.0178851
0.0188226
0.0205701
0.0219515
0.0231049
0.0241769
0.0252012
0.0261867
0.0271434
0.0280808
0.0290071
0.02993
0.0308578
0.0317989
0.0327617
0.0337568
0.0347968
0.0358981
0.0370795
0.0383625
0.0397747
0.0413555
0.0431526
0.0452317
0.0476818
0.0506381
0.054286
0.0588382
0.0645221
0.0718592
0.0222049
0.02318
0.0243043
0.0252394
0.0260722
0.0268648
0.0276287
0.0283682
0.0290905
0.0298036
0.0305156
0.0312344
0.0319684
0.0327264
0.0335181
0.0343552
0.0352515
0.036224
0.0372928
0.0384828
0.0398263
0.0413665
0.0431599
0.0452847
0.0478507
0.0510203
0.0550283
0.0601965
0.0670122
0.076064
0.0245121
0.0253803
0.0262222
0.0269726
0.0276999
0.0284206
0.0291317
0.029834
0.0305325
0.0312329
0.0319414
0.0326645
0.0334097
0.0341851
0.0350001
0.0358662
0.0367975
0.0378112
0.0389287
0.0401769
0.0415911
0.0432182
0.0451212
0.0473875
0.0501408
0.0535606
0.0579131
0.0635769
0.0712031
0.0814832
0.0265237
0.0272832
0.02801
0.0286808
0.0293444
0.0300105
0.0306784
0.0313506
0.0320322
0.0327286
0.0334456
0.0341893
0.0349668
0.0357862
0.0366571
0.037591
0.0386025
0.0397092
0.0409335
0.042304
0.0438581
0.0456457
0.0477339
0.0502159
0.0532232
0.0569451
0.0616624
0.0677704
0.0760112
0.0871225
0.0284008
0.0290677
0.0297051
0.0303051
0.0309089
0.0315265
0.0321585
0.0328078
0.0334784
0.0341752
0.0349034
0.0356688
0.0364783
0.0373401
0.0382642
0.0392625
0.04035
0.0415453
0.042872
0.0443602
0.0460497
0.0479929
0.0502607
0.0529506
0.0562001
0.0602059
0.0652588
0.0717652
0.0805508
0.0924108
0.0301147
0.0306997
0.0312614
0.031802
0.0323588
0.0329405
0.0335477
0.0341827
0.0348489
0.0355507
0.0362929
0.0370812
0.0379223
0.0388246
0.0397979
0.0408547
0.0420105
0.0432846
0.0447016
0.0462932
0.0481008
0.0501792
0.0526023
0.0554715
0.058929
0.0631782
0.0685194
0.0753721
0.0846436
0.0972114
0.0316626
0.0321745
0.0326721
0.0331644
0.0336845
0.0342394
0.0348293
0.035456
0.0361226
0.036833
0.0375916
0.0384039
0.0392765
0.0402178
0.0412377
0.0423491
0.0435676
0.0449133
0.0464115
0.0480952
0.0500071
0.0522039
0.0547618
0.0577854
0.0614208
0.0658769
0.0714631
0.0786122
0.0882979
0.101494
0.0330398
0.0334861
0.0339288
0.0343816
0.0348729
0.0354077
0.0359858
0.0366085
0.0372786
0.0379995
0.0387753
0.0396113
0.040514
0.0414916
0.0425545
0.0437154
0.0449904
0.0464001
0.0479705
0.0497354
0.0517387
0.0540386
0.0567131
0.0598692
0.0636562
0.0682879
0.0740809
0.0814805
0.0915056
0.105233
0.0342378
0.0346253
0.0350214
0.0354425
0.0359114
0.0364313
0.0370017
0.0376233
0.0382987
0.0390306
0.039823
0.0406811
0.0416111
0.0426214
0.0437222
0.0449266
0.046251
0.0477162
0.0493488
0.0511834
0.0532647
0.0556521
0.0584251
0.0616926
0.0656065
0.0703841
0.0763488
0.083956
0.0942494
0.108415
0.0352498
0.0355855
0.035943
0.0363391
0.036791
0.0373002
0.0378657
0.0384881
0.0391692
0.0399117
0.0407193
0.0415969
0.0425507
0.0435891
0.0447223
0.0459636
0.0473294
0.0488411
0.0505257
0.0524181
0.054564
0.0570234
0.0598772
0.0632356
0.0672528
0.0721488
0.0782523
0.0860273
0.0965246
0.111045
0.0360727
0.0363646
0.0366912
0.0370682
0.0375075
0.0380091
0.0385717
0.0391957
0.0398824
0.0406343
0.0414549
0.0423489
0.0433225
0.044384
0.0455437
0.0468149
0.0482144
0.0497636
0.0514899
0.0534286
0.0556259
0.0581426
0.0610604
0.0644907
0.0685891
0.0735778
0.07979
0.0876965
0.0983415
0.113145
0.0367088
0.0369652
0.0372684
0.0376314
0.0380617
0.0385581
0.0391191
0.0397449
0.0404365
0.0411961
0.0420271
0.0429341
0.0439233
0.0450028
0.046183
0.0474774
0.0489028
0.0504807
0.0522389
0.054213
0.0564495
0.0590097
0.0619759
0.0654604
0.06962
0.0746784
0.080972
0.0889774
0.0997221
0.114745
0.0371651
0.0373952
0.0376817
0.0380351
0.0384593
0.0389524
0.0395127
0.04014
0.0408354
0.0416009
0.0424396
0.043356
0.0443565
0.0454491
0.0466442
0.0479552
0.0493991
0.0509977
0.0527786
0.0547779
0.0570422
0.0596333
0.0626338
0.0661566
0.0703594
0.0754668
0.0818175
0.0898927
0.100697
0.115888
0.0374534
0.0376664
0.0379424
0.03829
0.0387106
0.0392017
0.0397616
0.0403902
0.0410882
0.0418575
0.0427011
0.0436238
0.0446315
0.0457324
0.046937
0.0482586
0.0497143
0.051326
0.0531214
0.0551366
0.0574186
0.0600292
0.0630513
0.0665984
0.0708283
0.0759663
0.082353
0.0904719
0.101304
0.116617
0.0375888
0.0377935
0.0380645
0.0384094
0.0388284
0.0393187
0.0398786
0.0405078
0.0412071
0.0419782
0.0428244
0.04375
0.0447612
0.0458661
0.0470753
0.048402
0.0498634
0.0514813
0.0532837
0.0553065
0.0575969
0.0602168
0.0632493
0.0668079
0.0710507
0.0762033
0.0826071
0.0907467
0.101586
0.116969
0.0375888
0.0377935
0.0380645
0.0384094
0.0388284
0.0393187
0.0398786
0.0405078
0.0412071
0.0419782
0.0428244
0.04375
0.0447612
0.0458661
0.0470753
0.048402
0.0498634
0.0514813
0.0532837
0.0553065
0.0575969
0.0602168
0.0632493
0.0668079
0.0710507
0.0762033
0.0826071
0.0907467
0.101586
0.116969
0.0374534
0.0376664
0.0379424
0.03829
0.0387106
0.0392017
0.0397616
0.0403902
0.0410882
0.0418575
0.0427011
0.0436238
0.0446315
0.0457324
0.046937
0.0482586
0.0497144
0.051326
0.0531214
0.0551366
0.0574186
0.0600292
0.0630514
0.0665984
0.0708283
0.0759663
0.082353
0.0904719
0.101304
0.116617
0.0371651
0.0373952
0.0376817
0.0380351
0.0384593
0.0389524
0.0395127
0.04014
0.0408354
0.0416009
0.0424396
0.043356
0.0443565
0.0454491
0.0466442
0.0479552
0.0493991
0.0509977
0.0527786
0.0547779
0.0570422
0.0596333
0.0626338
0.0661567
0.0703594
0.0754668
0.0818176
0.0898927
0.100697
0.115888
0.0367087
0.0369652
0.0372684
0.0376313
0.0380617
0.0385581
0.0391191
0.0397449
0.0404365
0.0411961
0.0420271
0.0429341
0.0439233
0.0450028
0.0461831
0.0474774
0.0489028
0.0504808
0.0522389
0.054213
0.0564495
0.0590097
0.0619759
0.0654605
0.0696201
0.0746785
0.0809721
0.0889775
0.0997222
0.114746
0.0360727
0.0363645
0.0366912
0.0370682
0.0375075
0.0380091
0.0385717
0.0391956
0.0398824
0.0406343
0.0414549
0.0423489
0.0433225
0.044384
0.0455437
0.0468149
0.0482144
0.0497636
0.0514899
0.0534286
0.0556259
0.0581427
0.0610604
0.0644907
0.0685891
0.0735779
0.0797901
0.0876966
0.0983416
0.113145
0.0352498
0.0355855
0.035943
0.0363391
0.036791
0.0373002
0.0378657
0.0384881
0.0391692
0.0399117
0.0407193
0.0415969
0.0425507
0.0435891
0.0447223
0.0459636
0.0473295
0.0488412
0.0505257
0.0524182
0.054564
0.0570235
0.0598773
0.0632357
0.0672529
0.0721489
0.0782524
0.0860274
0.0965248
0.111046
0.0342378
0.0346252
0.0350214
0.0354425
0.0359114
0.0364313
0.0370016
0.0376233
0.0382986
0.0390306
0.039823
0.0406811
0.0416111
0.0426214
0.0437223
0.0449266
0.046251
0.0477162
0.0493489
0.0511835
0.0532648
0.0556522
0.0584252
0.0616927
0.0656066
0.0703843
0.076349
0.0839562
0.0942496
0.108416
0.0330397
0.033486
0.0339288
0.0343816
0.0348729
0.0354077
0.0359857
0.0366085
0.0372786
0.0379995
0.0387753
0.0396113
0.040514
0.0414917
0.0425545
0.0437154
0.0449904
0.0464001
0.0479706
0.0497355
0.0517388
0.0540387
0.0567132
0.0598693
0.0636564
0.068288
0.0740811
0.0814807
0.0915058
0.105234
0.0316626
0.0321745
0.0326721
0.0331644
0.0336845
0.0342394
0.0348293
0.035456
0.0361226
0.036833
0.0375916
0.0384039
0.0392766
0.0402178
0.0412378
0.0423491
0.0435676
0.0449133
0.0464116
0.0480953
0.0500072
0.052204
0.0547619
0.0577855
0.0614209
0.0658771
0.0714633
0.0786125
0.0882982
0.101494
0.0301147
0.0306997
0.0312614
0.031802
0.0323588
0.0329405
0.0335477
0.0341826
0.0348489
0.0355507
0.0362929
0.0370812
0.0379224
0.0388246
0.0397979
0.0408548
0.0420106
0.0432847
0.0447017
0.0462933
0.0481009
0.0501793
0.0526024
0.0554716
0.0589291
0.0631784
0.0685196
0.0753724
0.0846439
0.0972118
0.0284008
0.0290677
0.0297051
0.0303051
0.0309089
0.0315265
0.0321585
0.0328078
0.0334784
0.0341752
0.0349034
0.0356688
0.0364783
0.0373402
0.0382642
0.0392625
0.04035
0.0415454
0.042872
0.0443603
0.0460498
0.047993
0.0502608
0.0529508
0.0562003
0.0602061
0.0652591
0.0717655
0.0805511
0.0924113
0.0265237
0.0272832
0.0280099
0.0286808
0.0293444
0.0300105
0.0306783
0.0313505
0.0320322
0.0327286
0.0334456
0.0341893
0.0349668
0.0357862
0.0366571
0.0375911
0.0386025
0.0397093
0.0409336
0.0423041
0.0438582
0.0456458
0.047734
0.0502161
0.0532234
0.0569454
0.0616626
0.0677707
0.0760116
0.087123
0.024512
0.0253803
0.0262222
0.0269725
0.0276998
0.0284206
0.0291316
0.029834
0.0305325
0.0312329
0.0319414
0.0326645
0.0334097
0.0341851
0.0350001
0.0358662
0.0367975
0.0378113
0.0389288
0.040177
0.0415912
0.0432183
0.0451214
0.0473876
0.050141
0.0535608
0.0579134
0.0635772
0.0712035
0.0814837
0.0222049
0.02318
0.0243043
0.0252393
0.0260722
0.0268648
0.0276287
0.0283682
0.0290904
0.0298036
0.0305156
0.0312344
0.0319683
0.0327264
0.0335181
0.0343552
0.0352515
0.036224
0.0372929
0.0384829
0.0398264
0.0413666
0.04316
0.0452849
0.0478509
0.0510206
0.0550286
0.0601968
0.0670127
0.0760645
0.0178851
0.0188226
0.0205701
0.0219515
0.0231049
0.0241769
0.0252011
0.0261867
0.0271434
0.0280808
0.0290071
0.02993
0.0308578
0.0317989
0.0327618
0.0337568
0.0347968
0.0358981
0.0370796
0.0383625
0.0397747
0.0413556
0.0431527
0.0452318
0.047682
0.0506384
0.0542862
0.0588385
0.0645225
0.0718598
0.0656223
0.0637275
0.0597367
0.0548599
0.0497424
0.0444803
0.0390704
0.033548
0.027971
0.0223999
0.0168919
0.0115003
0.00627283
0.00125079
-0.00353141
-0.00804641
-0.0122734
-0.0161977
-0.019811
-0.023111
-0.0260937
-0.0287472
-0.031097
-0.0331515
-0.0349218
-0.0364335
-0.0377318
-0.038806
-0.0393604
-0.0388406
0.0548147
0.0546066
0.0521705
0.0485243
0.0445706
0.0404821
0.0362273
0.0318116
0.0272757
0.0226705
0.0180491
0.0134654
0.00897251
0.00462069
0.000455127
-0.00348553
-0.00717017
-0.0105756
-0.013686
-0.0164919
-0.0189954
-0.0212153
-0.0231473
-0.024806
-0.0262126
-0.0274051
-0.0284366
-0.0292328
-0.0293015
-0.0281321
0.0486245
0.0491634
0.0474723
0.0445268
0.0412788
0.0379115
0.0343815
0.0306798
0.0268357
0.0228906
0.0188901
0.0148837
0.0109233
0.00706004
0.00334233
-0.000186952
-0.00349212
-0.00654586
-0.00932965
-0.0118337
-0.0140567
-0.0160045
-0.0176877
-0.019121
-0.0203249
-0.0213399
-0.0222233
-0.0228851
-0.0227572
-0.0212668
0.0444422
0.0453537
0.0441164
0.0416636
0.0389148
0.036044
0.0330062
0.02979
0.0264204
0.0229336
0.0193714
0.0157801
0.0122096
0.00871081
0.00533281
0.00212012
-0.000889474
-0.0036665
-0.00619067
-0.00845092
-0.0104449
-0.0121777
-0.0136604
-0.0149072
-0.0159381
-0.0167929
-0.017529
-0.0180562
-0.0177946
-0.01615
0.0413956
0.0424679
0.041509
0.0394118
0.0370362
0.0345383
0.0318726
0.0290275
0.0260246
0.0228965
0.0196813
0.0164227
0.0131686
0.00996879
0.00687202
0.00392316
0.00116074
-0.00138493
-0.00369269
-0.00575086
-0.00755661
-0.00911482
-0.0104362
-0.0115347
-0.0124294
-0.0131582
-0.0137777
-0.0142033
-0.0138666
-0.0121531
0.0391024
0.0402239
0.0394424
0.0376108
0.0355218
0.033311
0.030934
0.0283795
0.0256669
0.0228259
0.0198916
0.0169051
0.0139123
0.0109616
0.00810083
0.00537435
0.00282069
0.000470326
-0.00165533
-0.00354429
-0.00519342
-0.00660731
-0.0077963
-0.00877402
-0.00955855
-0.0101855
-0.0107104
-0.0110579
-0.0106793
-0.0089377
0.0373065
0.0384276
0.0377605
0.0361334
0.0342721
0.0322906
0.0301454
0.0278263
0.025351
0.0227464
0.0200453
0.0172865
0.0145142
0.011775
0.00911567
0.00657977
0.00420536
0.00202273
5.31924e-05
-0.0016912
-0.00320717
-0.00449908
-0.00557701
-0.0064543
-0.00714813
-0.00769198
-0.0081404
-0.00842819
-0.00802923
-0.00628079
0.0358807
0.0369555
0.0363635
0.0348959
0.0332205
0.0314278
0.0294742
0.0273509
0.0250744
0.0226692
0.0201661
0.0176021
0.0150192
0.0124627
0.00997795
0.00760776
0.00538941
0.00335272
0.00151875
-0.000100574
-0.00150197
-0.00268965
-0.00367352
-0.00446668
-0.00508556
-0.00556161
-0.00594845
-0.0061912
-0.00578623
-0.0040418
0.0347124
0.0357135
0.0351796
0.0338436
0.0323211
0.030687
0.0288957
0.0269393
0.0248329
0.0225995
0.0202679
0.017873
0.0154556
0.0130593
0.0107281
0.00850387
0.00642298
0.00451471
0.0027997
0.00128965
-1.22196e-05
-0.00111006
-0.00201364
-0.00273586
-0.00329254
-0.00371317
-0.00405051
-0.0042596
-0.00385833
-0.0021232
0.0337335
0.0346413
0.0341484
0.0329354
0.0315404
0.0300411
0.0283904
0.0265791
0.0246215
0.0225388
0.0203581
0.0181129
0.0158422
0.0135883
0.0113938
0.00929957
0.00734108
0.00554693
0.00393729
0.00252357
0.00130886
0.00028903
-0.000545574
-0.00120771
-0.00171262
-0.00208801
-0.00238565
-0.00257006
-0.00217939
-0.000456017
0.0328976
0.0336939
0.0332294
0.0321341
0.0308546
0.0294696
0.0279424
0.02626
0.0244347
0.0224865
0.0204409
0.0183301
0.0161914
0.0140657
0.0119945
0.0100173
0.0081689
0.00647715
0.00496169
0.00363359
0.00249578
0.00154412
0.000769066
0.000157996
-0.000303817
-0.000642391
-0.000908456
-0.00107537
-0.00070037
0.00101006
0.0321638
0.0328497
0.0324022
0.0314047
0.0302421
0.0289563
0.0275387
0.0259728
0.0242673
0.0224411
0.0205185
0.01853
0.0165116
0.0145028
0.012544
0.0106735
0.00892516
0.00732617
0.0058956
0.00464419
0.00357469
0.00268296
0.00195955
0.00139197
0.000965959
0.000657115
0.000415836
0.000260525
0.000615893
0.00231247
0.0315062
0.0320754
0.0316457
0.0307351
0.02968
0.028488
0.0271682
0.0257092
0.0241144
0.0224006
0.0205913
0.0187158
0.0168086
0.0149079
0.0130527
0.0112805
0.00962409
0.00810992
0.00675656
0.0055744
0.00456601
0.00372725
0.00304878
0.00251824
0.00212183
0.00183665
0.00161434
0.0014657
0.00179813
0.00347947
0.0309062
0.0313516
0.0309422
0.0301127
0.0291507
0.0280557
0.026822
0.0254621
0.023971
0.0223626
0.0206594
0.0188897
0.0170866
0.015287
0.0135286
0.0118479
0.0102768
0.00884098
0.00755848
0.00643935
0.00548601
0.00469432
0.00405505
0.00355603
0.00318383
0.00291702
0.00270858
0.00256233
0.00286887
0.00453247
0.03034
0.0306682
0.0302808
0.029523
0.028644
0.027648
0.0264954
0.025226
0.0238331
0.0223246
0.0207222
0.0190528
0.0173484
0.0156445
0.0139777
0.0123833
0.0108922
0.00952951
0.00831268
0.00725141
0.006348
0.00559834
0.00499332
0.00452095
0.00416821
0.00391502
0.00371584
0.00356813
0.00384597
0.00548764
0.0297907
0.0300119
0.029648
0.0289586
0.0281563
0.0272495
0.0261834
0.0249958
0.0236964
0.0222843
0.0207786
0.0192057
0.0175961
0.0159841
0.0144049
0.0128927
0.0114777
0.0101839
0.00902858
0.00802093
0.00716313
0.00645113
0.005876
0.00542595
0.00508833
0.00484436
0.0046501
0.00449734
0.00474363
0.00635693
0.0292483
0.0293702
0.0290324
0.0284109
0.0276782
0.0268499
0.0258796
0.0247679
0.0235574
0.0222391
0.0208276
0.0193484
0.0178311
0.0163082
0.014814
0.0133813
0.0120393
0.0108115
0.00971427
0.00875674
0.00794092
0.00726279
0.00671363
0.00628189
0.00595529
0.00571628
0.0055227
0.00536136
0.00557308
0.00714875
0.0287055
0.0287318
0.0284215
0.0278674
0.0272036
0.0264487
0.0255725
0.0245391
0.0234128
0.0221865
0.0208678
0.0194809
0.0180543
0.0166192
0.0152084
0.0138534
0.0125825
0.0114184
0.0103768
0.00946664
0.00868969
0.00804206
0.00751523
0.00709796
0.00677835
0.00654002
0.00634277
0.00616919
0.00634307
0.0078685
0.0281549
0.0280871
0.0278073
0.0273202
0.026725
0.0260418
0.0252529
0.0243067
0.0232589
0.0221236
0.0208976
0.0196027
0.0182665
0.0169188
0.0155908
0.0143129
0.0131121
0.0120103
0.0110227
0.0101576
0.0094169
0.00879667
0.0082887
0.00788205
0.00756525
0.0073231
0.00711751
0.00692777
0.00706012
0.00851887
0.0275868
0.0274298
0.0271831
0.0267634
0.0262381
0.0256222
0.0249132
0.0240664
0.0230936
0.0220479
0.0209153
0.0197131
0.0184679
0.0172083
0.0159637
0.0147632
0.0136326
0.0125925
0.0116578
0.0108361
0.0101293
0.00953358
0.00904094
0.00864089
0.00832242
0.00807148
0.00785238
0.00764205
0.00772869
0.00910015
0.0269915
0.0267523
0.0265416
0.0261889
0.0257334
0.0251871
0.0245546
0.0238086
0.0229153
0.0219571
0.0209191
0.0198111
0.0186587
0.0174889
0.0163295
0.0152077
0.0141481
0.0131702
0.0122878
0.0115084
0.0108334
0.0102591
0.0097781
0.00938021
0.00905503
0.00878969
0.00855115
0.00831513
0.00835123
0.00961051
0.0263589
0.0260475
0.0258764
0.0255912
0.0252059
0.024731
0.0241745
0.0235255
0.022722
0.0218483
0.0209068
0.0198957
0.0188387
0.0177615
0.01669
0.0156495
0.0146628
0.0137482
0.0129184
0.0121803
0.0115351
0.0109793
0.0105057
0.0101048
0.00976711
0.00948085
0.00921598
0.0089483
0.00892819
0.0100463
0.0256764
0.0253075
0.0251806
0.0249642
0.0246509
0.024251
0.02377
0.02321
0.0225107
0.0217181
0.0208756
0.0199653
0.0190076
0.018027
0.0170474
0.0160919
0.0151811
0.0143318
0.0135555
0.0128581
0.0122405
0.0116995
0.0112285
0.0108188
0.0104616
0.0101467
0.00984737
0.00954097
0.00945789
0.0104024
0.0249272
0.0245222
0.0244458
0.024301
0.0240619
0.0237398
0.0233368
0.0228613
0.022275
0.0215661
0.0208237
0.0200185
0.0191648
0.0182861
0.0174037
0.016538
0.0157075
0.0149264
0.0142048
0.0135475
0.0129553
0.0124248
0.0119504
0.0115246
0.0111395
0.0107869
0.0104437
0.0100903
0.00993623
0.0106728
0.0240893
0.0236782
0.0236599
0.0235918
0.0234316
0.0231903
0.022869
0.02248
0.0220063
0.0213912
0.0207489
0.0200535
0.0193097
0.0185392
0.0177606
0.0169911
0.0162458
0.0155366
0.0148712
0.0142533
0.013683
0.0131577
0.0126728
0.012222
0.0117993
0.0113983
0.0110002
0.0105907
0.0103565
0.0108513
0.0231422
0.0227701
0.0228167
0.0228288
0.0227544
0.0225996
0.0223647
0.0220652
0.0216989
0.021189
0.0206467
0.0200671
0.0194401
0.0187857
0.0181192
0.0174538
0.0168008
0.0161683
0.0155614
0.0149819
0.0144293
0.0139026
0.0133985
0.0129122
0.01244
0.011978
0.0115126
0.0110371
0.0107126
0.0109347
0.0220517
0.0218275
0.0219564
0.0220392
0.0220482
0.0219808
0.0218319
0.0216185
0.0213492
0.0209549
0.0205087
0.0200493
0.0195477
0.0190208
0.0184801
0.0179336
0.0173867
0.0168423
0.0163013
0.0157623
0.0152237
0.0146893
0.0141559
0.0136202
0.0130823
0.0125424
0.0119933
0.0114378
0.0110048
0.0109227
0.0206089
0.0207925
0.0211074
0.0212612
0.021337
0.0213451
0.0212737
0.0211335
0.0209457
0.0206749
0.0203253
0.0199901
0.0196269
0.0192467
0.0188555
0.0184531
0.0180363
0.0175998
0.017138
0.016646
0.0161229
0.0155679
0.0149876
0.0143814
0.0137539
0.0131113
0.0124545
0.0117943
0.0112177
0.0108008
0.0181284
0.018924
0.0197237
0.0201245
0.0203534
0.0204947
0.0205505
0.02053
0.0204621
0.0203439
0.0201341
0.019947
0.0197417
0.0195208
0.0192832
0.0190196
0.0187176
0.0183662
0.0179547
0.0174802
0.0169607
0.0163274
0.0156628
0.0149582
0.0142213
0.0134638
0.0126936
0.0119253
0.011199
0.0104946
0.0142187
0.0148114
0.0162796
0.0173646
0.018151
0.0187759
0.0192656
0.0196315
0.0199015
0.0200859
0.0201478
0.0201615
0.020099
0.0199561
0.0197318
0.0194223
0.0190247
0.0185419
0.0179772
0.0173304
0.0165962
0.0158792
0.0151243
0.0143466
0.0135662
0.012796
0.0120454
0.0113293
0.0106575
0.00997483
-0.0405187
-0.0325754
-0.0265773
-0.0217067
-0.0176863
-0.0143394
-0.0115159
-0.00910653
-0.00702813
-0.00521744
-0.00362582
-0.00221529
-0.000955832
0.00017659
0.00120147
0.00213478
0.00298965
0.00377689
0.00450524
0.00518157
0.00581082
0.00639599
0.00693798
0.00743548
0.00788463
0.00827708
0.00860293
0.00885991
0.00904965
0.00909576
-0.0406699
-0.0325994
-0.0263066