/*--------------------------------*- C++ -*----------------------------------*\
  =========                 |
  \\      /  F ield         | OpenFOAM: The Open Source CFD Toolbox
   \\    /   O peration     | Website:  https://openfoam.org
    \\  /    A nd           | Version:  12
     \\/     M anipulation  |
\*---------------------------------------------------------------------------*/
FoamFile
{
    format      ascii;
    class       surfaceScalarField;
    location    "400";
    object      phi;
}
// * * * * * * * * * * * * * * * * * * * * * * * * * * * * * * * * * * * * * //

dimensions      [0 3 -1 0 0 0 0];

internalField   nonuniform List<scalar> 
13275
(
0.369023
-0.00462578
0.369481
-0.0114852
0.369794
-0.0154059
0.369909
-0.0173602
-0.0180302
0.369849
0.351098
-0.00489886
0.35146
-0.0118472
0.351681
-0.0156267
0.351643
-0.0173214
-0.0176326
0.351245
0.334002
-0.00502175
0.334077
-0.0119229
0.333968
-0.0155176
0.333634
-0.0169873
-0.017094
0.333096
0.317721
-0.00499233
0.317511
-0.0117122
0.317103
-0.0151098
0.316533
-0.0164172
-0.0164197
0.315858
0.302245
-0.00483554
0.30179
-0.0112571
0.301125
-0.0144447
0.300336
-0.0156284
-0.0155829
0.299499
0.287534
-0.00457535
0.286872
-0.0105952
0.285978
-0.0135506
0.284977
-0.0146274
-0.0145639
0.283958
0.273546
-0.00422905
0.272706
-0.00975537
0.271606
-0.0124506
0.270403
-0.0134238
-0.0133581
0.269197
0.260244
-0.00381038
0.259251
-0.00876322
0.25797
-0.0111694
0.256582
-0.0120353
-0.0119756
0.255199
0.247593
-0.00333244
0.246476
-0.00764585
0.245043
-0.00973674
0.243497
-0.0104892
-0.0104388
0.24196
0.235564
-0.00280899
0.234351
-0.00643285
0.232802
-0.00818766
0.231133
-0.00882009
-0.00878016
0.229475
0.224129
-0.00225439
0.222852
-0.00515562
0.221225
-0.00656044
0.219472
-0.00706777
-0.00703785
0.21773
0.213259
-0.0016831
0.211949
-0.00384557
0.210283
-0.00489393
0.208488
-0.00527316
-0.00525214
0.206702
0.202927
-0.001109
0.201614
-0.00253219
0.199945
-0.0032249
0.198147
-0.00347522
-0.00346185
0.196357
0.193107
-0.000544646
0.191817
-0.00124196
0.190177
-0.00158562
0.18841
-0.00170826
-0.00170157
0.18665
0.183771
-2.19942e-08
0.18253
-6.32573e-08
0.180944
-9.17983e-08
0.179236
-1.0754e-07
-1.13574e-07
0.177534
0.183771
0.000544602
0.18253
0.00124184
0.180944
0.00158544
0.179236
0.00170804
0.00170134
0.177534
0.193107
0.00110895
0.191817
0.00253207
0.190177
0.00322471
0.18841
0.00347501
0.00346163
0.18665
0.202927
0.00168306
0.201614
0.00384544
0.199945
0.00489374
0.198147
0.00527294
0.00525191
0.196357
0.213259
0.00225435
0.211949
0.00515549
0.210283
0.00656025
0.208488
0.00706756
0.00703762
0.206702
0.224129
0.00280894
0.222852
0.00643272
0.221225
0.00818748
0.219472
0.00881988
0.00877994
0.21773
0.235564
0.0033324
0.234351
0.00764572
0.232802
0.00973656
0.231133
0.010489
0.0104386
0.229475
0.247593
0.00381034
0.246476
0.00876309
0.245043
0.0111692
0.243497
0.0120351
0.0119753
0.24196
0.260244
0.00422901
0.259251
0.00975524
0.25797
0.0124504
0.256582
0.0134236
0.0133579
0.255199
0.273546
0.0045753
0.272706
0.0105951
0.271606
0.0135504
0.270403
0.0146272
0.0145636
0.269197
0.287534
0.0048355
0.286872
0.011257
0.285978
0.0144445
0.284977
0.0156282
0.0155826
0.283958
0.302245
0.00499228
0.30179
0.0117121
0.301125
0.0151096
0.300336
0.0164169
0.0164194
0.299499
0.317721
0.00502171
0.317511
0.0119228
0.317103
0.0155174
0.316533
0.016987
0.0170938
0.315858
0.334002
0.00489882
0.334077
0.0118471
0.333968
0.0156265
0.333634
0.0173211
0.0176323
0.333096
0.351098
0.00462573
0.35146
0.011485
0.351681
0.0154056
0.351643
0.01736
0.0180299
0.351245
0.369023
0.369481
0.369794
0.369909
0.369849
0.197356
-0.05053
-0.197397
0.196943
-0.0577704
0.195919
-0.0640415
0.194264
-0.0695586
0.192034
-0.0742865
0.189302
-0.0781596
0.186137
-0.0810871
0.182617
-0.0829459
0.178829
-0.0835919
0.174887
-0.0829758
0.170876
-0.0809012
0.166951
-0.0772307
0.163258
-0.0720475
0.15994
-0.0654424
0.157128
-0.0575936
0.154927
-0.0487567
0.153408
-0.0392437
0.152606
-0.0293923
0.152514
-0.0195384
0.153091
-0.00999008
0.154249
-0.000975802
0.15595
0.00729117
0.158083
0.0147231
0.160556
0.0212271
0.163282
0.0267841
0.166181
0.0314133
0.169182
0.0351606
0.172224
0.0380877
0.175249
0.0402648
0.0417574
0.178164
0.194725
-0.050649
-0.194606
0.194061
-0.0571063
0.192707
-0.0626875
0.190763
-0.0676143
0.188306
-0.0718295
0.185409
-0.0752624
0.182138
-0.0778164
0.178563
-0.0793714
0.17477
-0.0797988
0.170856
-0.079061
0.166899
-0.0769445
0.163048
-0.0733794
0.159434
-0.068434
0.156189
-0.0621969
0.153429
-0.0548346
0.151253
-0.0465807
0.149726
-0.0377167
0.148881
-0.0285467
0.148713
-0.0193709
0.149185
-0.0104615
0.150252
-0.00204356
0.151826
0.00571757
0.153838
0.0127108
0.1562
0.0188654
0.158827
0.0241569
0.161643
0.0285973
0.16458
0.0322235
0.167581
0.0350866
0.17059
0.0372564
0.0388657
0.173481
0.191408
-0.0503899
-0.191667
0.190441
-0.0561392
0.188873
-0.0611198
0.186784
-0.065525
0.18424
-0.0692851
0.181299
-0.072322
0.17802
-0.0745375
0.174467
-0.0758185
0.170726
-0.0760569
0.166873
-0.0752084
0.162994
-0.0730651
0.159225
-0.0696105
0.155688
-0.064897
0.152503
-0.0590125
0.149782
-0.052113
0.147613
-0.0444124
0.146062
-0.0361654
0.145161
-0.0276452
0.14491
-0.0191199
0.145281
-0.0108329
0.146224
-0.00298679
0.147673
0.00426852
0.149556
0.0108282
0.151792
0.0166292
0.154302
0.0216467
0.157012
0.0258878
0.159854
0.0293813
0.162772
0.0321684
0.165715
0.0343139
0.0360201
0.168561
0.187981
-0.0497894
-0.188581
0.186757
-0.0549149
0.185007
-0.0593698
0.182791
-0.0633093
0.180166
-0.0666601
0.177184
-0.0693401
0.173898
-0.071252
0.170368
-0.0722882
0.16668
-0.0723682
0.162891
-0.0714199
0.159094
-0.0692682
0.15541
-0.0659266
0.15195
-0.0614369
0.148824
-0.0558864
0.146133
-0.0494218
0.143961
-0.0422402
0.142368
-0.0345729
0.141389
-0.0266659
0.141028
-0.0187594
0.141266
-0.0110705
0.142059
-0.00377971
0.143351
0.00297622
0.145077
0.00910293
0.147162
0.0145435
0.149535
0.0192743
0.152123
0.0232996
0.154862
0.0266424
0.157695
0.029335
0.160575
0.0314344
0.0332095
0.163385
0.184473
-0.0488971
-0.185365
0.183024
-0.0534657
0.181106
-0.0574518
0.178771
-0.0609749
0.17607
-0.0639586
0.173048
-0.0663189
0.169757
-0.0679609
0.166253
-0.0687838
0.162615
-0.0687303
0.15889
-0.0676945
0.155173
-0.0655518
0.151571
-0.0623243
0.148184
-0.0580498
0.145112
-0.0528143
0.142447
-0.0467567
0.140266
-0.0400594
0.138627
-0.0329338
0.137563
-0.0256024
0.137084
-0.0182807
0.137177
-0.0111626
0.137806
-0.00440882
0.138924
0.00185813
0.140473
0.00755404
0.142388
0.0126284
0.144602
0.0170602
0.147049
0.0208524
0.149667
0.0240241
0.152402
0.0266004
0.155207
0.0286296
0.0304378
0.157978
0.180853
-0.0477418
-0.182008
0.179199
-0.0518122
0.17713
-0.0553822
0.17469
-0.0585349
0.171922
-0.0611911
0.168869
-0.0632663
0.165578
-0.0646697
0.162104
-0.0653091
0.158513
-0.0651395
0.154849
-0.0640311
0.151209
-0.0619111
0.147683
-0.0587982
0.144363
-0.0547303
0.141341
-0.0497921
0.1387
-0.0441155
0.136511
-0.0378702
0.134827
-0.0312503
0.133683
-0.0244579
0.133089
-0.0176871
0.133037
-0.0111112
0.133502
-0.00487305
0.134441
0.000918637
0.135806
0.00618956
0.137538
0.0108959
0.139579
0.0150196
0.141867
0.0185641
0.144346
0.0215457
0.146961
0.0239847
0.14967
0.0259211
0.0277232
0.152384
0.1771
-0.046348
-0.178494
0.175264
-0.0499757
0.173061
-0.0531796
0.17053
-0.056004
0.167708
-0.0583686
0.164632
-0.0601902
0.161345
-0.0613834
0.157903
-0.0618666
0.154356
-0.0615923
0.150753
-0.0604284
0.147183
-0.0583411
0.143728
-0.0553431
0.140471
-0.0514738
0.137496
-0.0468169
0.134878
-0.0414979
0.132684
-0.0356755
0.130962
-0.0295283
0.129745
-0.0232407
0.129045
-0.016988
0.12886
-0.0109253
0.129166
-0.0051795
0.129931
0.000153605
0.131111
0.00500918
0.132658
0.0093498
0.134516
0.0131611
0.136633
0.0164474
0.138955
0.0192237
0.141432
0.0215071
0.144023
0.0233309
0.0250895
0.146656
0.173206
-0.0447421
-0.174812
0.17121
-0.0479793
0.168892
-0.0508618
0.166284
-0.053396
0.163417
-0.0555013
0.160324
-0.0570979
0.157046
-0.0581051
0.153636
-0.0584561
0.15013
-0.0580863
0.146586
-0.0568843
0.143082
-0.0548372
0.139693
-0.051954
0.136495
-0.0482765
0.133566
-0.0438871
0.130973
-0.0389055
0.128778
-0.0334801
0.127025
-0.0277761
0.125747
-0.0219619
0.124955
-0.0161963
0.124648
-0.0106182
0.124809
-0.00534035
0.125409
-0.000446816
0.126412
0.00400637
0.127774
0.00798791
0.129448
0.0114871
0.131386
0.0145095
0.133539
0.0170698
0.135863
0.0191832
0.138316
0.0208784
0.0225601
0.140845
0.169165
-0.0429513
-0.170956
0.167032
-0.0458456
0.164616
-0.0484462
0.161943
-0.0507233
0.15904
-0.0525981
0.155937
-0.0539951
0.15267
-0.0548382
0.149289
-0.0550752
0.145824
-0.0546211
0.142336
-0.0533965
0.138895
-0.0513954
0.135568
-0.0486273
0.132428
-0.0451361
0.129543
-0.0410025
0.126978
-0.0363407
0.124788
-0.0312899
0.123015
-0.0260028
0.121687
-0.0206337
0.120817
-0.0153263
0.120404
-0.0102053
0.120434
-0.00537081
0.120884
-0.000896319
0.12172
0.00317009
0.122905
0.00680273
0.124398
0.00999436
0.126155
0.0127521
0.128135
0.0150905
0.130294
0.017024
0.132594
0.0185785
0.020156
0.134998
0.164973
-0.0410024
-0.166922
0.162724
-0.0435961
0.160226
-0.0459483
0.1575
-0.0479973
0.154568
-0.0496668
0.15146
-0.0508864
0.148209
-0.0515871
0.144856
-0.0517221
0.141431
-0.0511966
0.137997
-0.0499621
0.134614
-0.0480127
0.131347
-0.0453607
0.128263
-0.0420515
0.125424
-0.0381641
0.122891
-0.0338074
0.120713
-0.0291117
0.118928
-0.0242185
0.117564
-0.0192689
0.11663
-0.0143931
0.116128
-0.00970316
0.116045
-0.00528767
0.11636
-0.00121089
0.117044
0.00248623
0.118063
0.00578301
0.119382
0.00867534
0.120963
0.0111718
0.122766
0.0132872
0.124754
0.0150355
0.126892
0.0164414
0.0178939
0.129154
0.160626
-0.0389206
-0.162708
0.15828
-0.0412507
0.155715
-0.0433828
0.152946
-0.0452284
0.149994
-0.0467147
0.146884
-0.0477766
0.143651
-0.0483544
0.140325
-0.0483957
0.136942
-0.0478134
0.133559
-0.0465795
0.130234
-0.0446874
0.127026
-0.0421529
0.123997
-0.0390227
0.121207
-0.0353738
0.11871
-0.0313098
0.116551
-0.0269527
0.114765
-0.0224332
0.113377
-0.0178802
0.112395
-0.0134118
0.11182
-0.00912827
0.111641
-0.00510823
0.111838
-0.00140763
0.112385
0.00193885
0.113253
0.00491491
0.114409
0.00751912
0.11582
0.00976137
0.11745
0.0116566
0.119267
0.0132188
0.121236
0.0144723
0.0157858
0.123344
0.15612
-0.0367294
-0.158311
0.153696
-0.0388272
0.151076
-0.0407631
0.148275
-0.0424267
0.145309
-0.0437491
0.142202
-0.0446696
0.138988
-0.0451406
0.13569
-0.0450976
0.132349
-0.0444727
0.129018
-0.0432483
0.12575
-0.0414191
0.122601
-0.0390042
0.11963
-0.0360511
0.116891
-0.0326347
0.114434
-0.0288532
0.112302
-0.0248204
0.110525
-0.0206567
0.109125
-0.0164799
0.10811
-0.0123967
0.107478
-0.00849675
0.10722
-0.00484961
0.107316
-0.00150388
0.107743
0.0015112
0.108475
0.00418305
0.109482
0.0065125
0.110733
0.0085104
0.112198
0.0101918
0.113846
0.0115708
0.115646
0.0126719
0.0138383
0.117594
0.15145
-0.0344502
-0.153729
0.148964
-0.0363419
0.146303
-0.0381013
0.143477
-0.039601
0.140504
-0.0407762
0.137406
-0.041572
0.134213
-0.0419472
0.130945
-0.04183
0.127648
-0.0411756
0.124369
-0.0399691
0.121158
-0.0382085
0.11807
-0.0359159
0.115158
-0.0331391
0.112474
-0.0299506
0.110064
-0.0264431
0.107966
-0.0227223
0.106208
-0.0188989
0.104808
-0.0150799
0.103773
-0.0113616
0.1031
-0.00782393
0.102778
-0.00452823
0.102791
-0.00151662
0.103116
0.0011864
0.103728
0.00357137
0.104599
0.0056409
0.105703
0.00740648
0.107012
0.00888304
0.108498
0.0100849
0.110133
0.0110367
0.0120536
0.111918
0.14661
-0.0321026
-0.148958
0.144077
-0.0338091
0.141385
-0.0354088
0.138544
-0.0367603
0.135571
-0.0378028
0.132488
-0.0384891
0.129316
-0.0387759
0.126083
-0.0385968
0.122832
-0.037924
0.119606
-0.0367436
0.116455
-0.0350576
0.11343
-0.0328905
0.110581
-0.0302901
0.107957
-0.0273261
0.105599
-0.0240855
0.103543
-0.020666
0.101813
-0.017169
0.100424
-0.0136914
0.0993821
-0.0103194
0.0986823
-0.00712416
0.0983137
-0.0041596
0.0982591
-0.00146207
0.0984975
0.000948011
0.0990051
0.00306377
0.0997569
0.00488912
0.100727
0.0064359
0.101892
0.00771873
0.103225
0.00875193
0.104701
0.00956031
0.0104297
0.106325
0.141592
-0.0297036
-0.143991
0.139026
-0.0312424
0.136314
-0.032697
0.133467
-0.0339138
0.1305
-0.0348357
0.127436
-0.0354248
0.124291
-0.0356306
0.121097
-0.0354028
0.117894
-0.0347214
0.114725
-0.0335751
0.111638
-0.0319697
0.108679
-0.0299317
0.105897
-0.0275085
0.103338
-0.0247664
0.101039
-0.0217867
0.099032
-0.0186593
0.0973391
-0.0154762
0.0959725
-0.0123248
0.0949351
-0.00928195
0.0942217
-0.00641071
0.0938202
-0.00375811
0.0937136
-0.00135545
0.0938812
0.000780372
0.0943004
0.00264455
0.0949476
0.00424194
0.0957991
0.00558436
0.0968319
0.00668595
0.098023
0.00756083
0.0993496
0.00823371
0.0089612
0.100818
0.136386
-0.0272684
-0.138821
0.133799
-0.0286552
0.131078
-0.0299767
0.128235
-0.03107
0.125282
-0.0318834
0.122241
-0.0323834
0.119128
-0.0325174
0.115978
-0.0322527
0.112828
-0.0315719
0.109721
-0.0304676
0.1067
-0.0289491
0.103813
-0.0270443
0.101104
-0.0247994
0.0986145
-0.0222774
0.0963812
-0.0195533
0.0944315
-0.0167095
0.0927844
-0.0138291
0.0914495
-0.0109899
0.090428
-0.00826039
0.089713
-0.00569577
0.0892919
-0.003337
0.0891473
-0.00121083
0.0892588
0.00066883
0.0896046
0.00229883
0.0901619
0.00368457
0.0909087
0.00483757
0.0918234
0.00577131
0.0928847
0.00649951
0.094072
0.00704643
0.00764042
0.0953927
0.130977
-0.0248117
-0.133434
0.128384
-0.0260613
0.125666
-0.0272592
0.122834
-0.0282379
0.119904
-0.0289534
0.116891
-0.0293702
0.113817
-0.0294436
0.110717
-0.0291523
0.107626
-0.028481
0.104585
-0.0274267
0.101637
-0.0260014
0.0988266
-0.0242338
0.096196
-0.0221688
0.0937839
-0.0198653
0.0916229
-0.0173923
0.0897378
-0.0148244
0.0881447
-0.0122359
0.0868508
-0.00969605
0.0858552
-0.00726483
0.0851499
-0.00499048
0.0847212
-0.00290832
0.0845515
-0.00104107
0.0846204
0.000599889
0.0849066
0.00201268
0.0853882
0.00320294
0.0860441
0.00418167
0.0868539
0.00496147
0.087798
0.00555545
0.0888574
0.00598709
0.0064579
0.0900399
0.125351
-0.022348
-0.127815
0.122764
-0.0234741
0.12006
-0.0245552
0.117249
-0.0254276
0.114349
-0.0260531
0.111372
-0.026393
0.108346
-0.0264172
0.105302
-0.0261086
0.102276
-0.0254557
0.0993088
-0.0244591
0.0964406
-0.0231331
0.0937137
-0.0215069
0.0911682
-0.0196233
0.0888399
-0.017537
0.0867583
-0.0153107
0.0849452
-0.0130113
0.083414
-0.0107048
0.0821697
-0.00845176
0.0812095
-0.00630459
0.0805239
-0.00430491
0.0800986
-0.00248293
0.0799153
-0.000857786
0.0799539
0.000561286
0.0801932
0.00177335
0.0806121
0.00278402
0.0811903
0.00360354
0.0819082
0.0042435
0.0827475
0.00471621
0.0836906
0.00504399
0.00540328
0.0847452
0.119487
-0.0198928
-0.121942
0.116919
-0.0209061
0.11424
-0.0218761
0.111462
-0.0226499
0.108599
-0.02319
0.105668
-0.023462
0.102698
-0.0234469
0.099719
-0.02313
0.0967672
-0.0225039
0.0938807
-0.0215726
0.0910996
-0.0203521
0.0884639
-0.0188712
0.086011
-0.0171704
0.0837738
-0.0152998
0.0817789
-0.0133158
0.0800453
-0.0112778
0.0785838
-0.00924327
0.0773971
-0.00726509
0.0764807
-0.00538821
0.075824
-0.00364818
0.0754116
-0.00207057
0.0752252
-0.000671367
0.0752445
0.000542026
0.0754485
0.00156932
0.0758166
0.0024159
0.0763291
0.00309107
0.0769673
0.00360527
0.0777137
0.00396987
0.078552
0.00420568
0.00446591
0.0794893
0.113359
-0.0174624
-0.115789
0.110823
-0.0183701
0.108181
-0.0192339
0.105446
-0.019915
0.10263
-0.0203746
0.099757
-0.0205886
0.0968531
-0.020543
0.0939494
-0.0202263
0.0910808
-0.0196353
0.0882846
-0.0187764
0.0855997
-0.0176671
0.0830636
-0.0163351
0.0807114
-0.0148182
0.0785732
-0.0131615
0.0766726
-0.0114153
0.075026
-0.00963112
0.0736416
-0.00785885
0.0725201
-0.00614358
0.0716553
-0.00452347
0.0710356
-0.00302846
0.0706449
-0.0016799
0.0704645
-0.000490979
0.0704742
0.000532409
0.0706531
0.0013904
0.070981
0.00208795
0.0714388
0.00263333
0.0720083
0.00303571
0.0726728
0.00330537
0.0734172
0.00346135
0.00363543
0.0742476
0.106932
-0.015073
-0.109321
0.104441
-0.0158796
0.10185
-0.0166427
0.0991695
-0.0172346
0.0964155
-0.0176206
0.093612
-0.0177852
0.0907862
-0.0177171
0.0879688
-0.017409
0.0851944
-0.0168609
0.0824994
-0.0160814
0.0799207
-0.0150884
0.0774939
-0.0139084
0.0752515
-0.0125758
0.0732208
-0.0111308
0.0714225
-0.00961706
0.0698704
-0.00807896
0.0685703
-0.00655876
0.067521
-0.00509434
0.0667151
-0.0037175
0.0661396
-0.00245304
0.0657782
-0.00131849
0.0656118
-0.000324578
0.0656202
0.000524046
0.0657828
0.00122776
0.0660799
0.00179093
0.0664925
0.00222072
0.0670032
0.002525
0.0675957
0.00271281
0.0682559
0.00280118
0.00290221
0.0689891
0.100159
-0.0127422
-0.102489
0.0977308
-0.0134516
0.0952053
-0.0141172
0.0925937
-0.014623
0.0899162
-0.014943
0.0871967
-0.0150656
0.0844626
-0.014983
0.0817449
-0.0146914
0.0790777
-0.0141936
0.0764961
-0.0134998
0.0740354
-0.0126277
0.0717289
-0.0116019
0.0696064
-0.0104533
0.0676924
-0.00921676
0.0660049
-0.00792959
0.064555
-0.00662902
0.0633464
-0.00535015
0.0623762
-0.00412411
0.0616355
-0.00297681
0.0611108
-0.00192835
0.0607852
-0.000992861
0.0606395
-0.000178894
0.0606536
0.000509904
0.0608074
0.00107399
0.0610812
0.00151709
0.0614568
0.00184518
0.061917
0.00206479
0.0624461
0.00218366
0.0630307
0.00221665
0.00225777
0.0636751
0.0929794
-0.01049
-0.0952316
0.0906324
-0.0111046
0.088189
-0.0116739
0.0856646
-0.0120986
0.0830807
-0.0123591
0.0804618
-0.0124467
0.0778357
-0.0123569
0.0752337
-0.0120893
0.0726889
-0.0116488
0.0702354
-0.0110463
0.0679064
-0.0102987
0.0657329
-0.00942844
0.0637418
-0.00846224
0.0619548
-0.00742979
0.0603873
-0.00636204
0.0590477
-0.00528942
0.0579378
-0.00424024
0.057053
-0.00323936
0.0563836
-0.00230733
0.0559152
-0.00146
0.0556308
-0.000708447
0.0555113
-5.93763e-05
0.0555368
0.000484395
0.0556875
0.00092329
0.0559443
0.00126033
0.0562891
0.00150029
0.0567055
0.00164843
0.0571781
0.00171111
0.0576938
0.00170089
0.00169518
0.0582564
0.0853094
-0.00833924
-0.0874602
0.0830636
-0.00885881
0.0807238
-0.00933402
0.0783078
-0.00968264
0.0758379
-0.00988923
0.0733396
-0.00994838
0.0708414
-0.00985873
0.0683743
-0.00962218
0.0659705
-0.00924504
0.0636626
-0.00873837
0.0614817
-0.00811779
0.0594561
-0.00740283
0.0576099
-0.00661602
0.0559618
-0.00578169
0.0545244
-0.00492466
0.0533039
-0.00406892
0.0523001
-0.00323646
0.0515072
-0.00244641
0.0509143
-0.00171448
0.050507
-0.00105271
0.0502681
-0.000469544
0.0501788
2.99307e-05
0.0502197
0.000443548
0.0503713
0.000771617
0.0506152
0.00101643
0.0509339
0.00118166
0.051311
0.00127128
0.0517318
0.00129033
0.0521837
0.00124901
0.00120943
0.0526694
0.077027
-0.00631562
-0.0790506
0.0749085
-0.00674029
0.0726988
-0.00712428
0.0704169
-0.00740074
0.0680865
-0.00755884
0.0657341
-0.00759603
0.0633887
-0.00751328
0.0610806
-0.00731415
0.0588412
-0.00700557
0.0567008
-0.00659802
0.0546882
-0.0061052
0.0528288
-0.00554342
0.0511436
-0.00493083
0.0496484
-0.00428646
0.048353
-0.00362929
0.0472614
-0.00297729
0.0463716
-0.00234672
0.0456768
-0.00175154
0.0451655
-0.00120316
0.0448231
-0.000710316
0.0446327
-0.00027914
0.044576
8.662e-05
0.0446342
0.000385314
0.0447887
0.000617085
0.0450216
0.000783539
0.045316
0.000887282
0.0456561
0.000931176
0.0460274
0.00091899
0.0464179
0.000858589
0.000797971
0.0468293
0.0679535
-0.00445247
-0.0698167
0.0659962
-0.00478294
0.0639496
-0.00507774
0.061835
-0.00528614
0.0596776
-0.00540136
0.0575045
-0.00542301
0.0553447
-0.00535349
0.0532278
-0.00519717
0.051183
-0.00496083
0.0492387
-0.00465367
0.0474205
-0.00428697
0.0457506
-0.00387353
0.0442468
-0.00342705
0.0429218
-0.00296147
0.0417828
-0.00249028
0.0408315
-0.00202603
0.0400647
-0.00157986
0.0394743
-0.00116122
0.039049
-0.000777825
0.0387743
-0.000435564
0.0386338
-0.000138633
0.03861
0.00011033
0.0386853
0.000310076
0.0388418
0.000460561
0.0390626
0.000562756
0.0393315
0.00061834
0.0396335
0.000629196
0.0399545
0.000597968
0.0402828
0.000530316
0.000461235
0.0406195
0.0578097
-0.00279378
-0.0594684
0.0560582
-0.00303147
0.0542208
-0.00324034
0.0523205
-0.0033858
0.0503834
-0.00346426
0.0484369
-0.00347656
0.0465091
-0.00342565
0.0446278
-0.00331583
0.0428199
-0.00315297
0.0411106
-0.0029444
0.0395222
-0.00269855
0.0380733
-0.00242457
0.036778
-0.00213179
0.0356459
-0.0018294
0.0346816
-0.00152599
0.0338849
-0.00122935
0.0332514
-0.000946258
0.0327725
-0.000682404
0.0324371
-0.000442407
0.0322314
-0.000229839
0.0321401
-4.73029e-05
0.0321469
0.00010346
0.0322355
0.000221525
0.0323894
0.000306671
0.0325928
0.000359316
0.0328308
0.000380354
0.0330891
0.000370866
0.0333545
0.000332551
0.0336158
0.000269077
0.000203501
0.0338735
0.0461319
-0.00140446
-0.0475212
0.0446543
-0.0015538
0.0430968
-0.00168287
0.0414832
-0.00177218
0.0398393
-0.00182037
0.0381913
-0.00182861
0.0365652
-0.00179953
0.034986
-0.00173663
0.0334773
-0.00164423
0.0320602
-0.00152731
0.0307529
-0.00139124
0.0295698
-0.00124149
0.0285214
-0.00108339
0.0276139
-0.000921895
0.0268494
-0.000761496
0.0262261
-0.000606096
0.0257389
-0.000459013
0.0253795
-0.000323
0.0251374
-0.000200297
0.0250002
-9.26942e-05
0.0249545
-1.52235e-06
0.0249857
7.2229e-05
0.0250793
0.000127877
0.0252209
0.000165104
0.0253963
0.000183924
0.025592
0.000184612
0.0257953
0.000167615
0.025994
0.000133867
0.0261777
8.53448e-05
3.4429e-05
0.0263468
0.0320924
-0.000398922
-0.0330979
0.0310085
-0.000469867
0.0298553
-0.000529734
0.0286539
-0.000570756
0.0274269
-0.000593422
0.0261974
-0.000599085
0.0249876
-0.000589663
0.0238182
-0.000567268
0.0227081
-0.000534153
0.0216734
-0.000492639
0.0207272
-0.000445008
0.0198791
-0.000393409
0.0191355
-0.000339784
0.0184995
-0.000285821
0.0179709
-0.000232951
0.0175472
-0.000182354
0.0172231
-0.000134993
0.0169918
-9.16585e-05
0.0168445
-5.30105e-05
0.0167715
-1.97138e-05
0.0167624
7.59317e-06
0.0168049
2.9743e-05
0.0168878
4.5013e-05
0.0169993
5.35823e-05
0.0171279
5.5285e-05
0.0172626
4.99856e-05
0.0173926
3.75653e-05
0.0175085
1.80105e-05
0.0176021
-8.33077e-06
-3.52791e-05
0.0176718
0.014156
-0.0145549
0.0136861
0.0131564
0.0125856
0.0119922
0.0113931
0.0108035
0.0102362
0.00970205
0.00920942
0.00876441
0.008371
0.00803122
0.00774539
0.00751244
0.00733009
0.00719509
0.00710344
0.00705043
0.00703071
0.00703831
0.00706805
0.00711306
0.00716664
0.00722193
0.00727191
0.00730948
0.00732749
0.00731916
0.00728388
0.351225
-0.178773
0.333837
-0.177218
0.317076
-0.174907
0.300819
-0.172324
0.28496
-0.169506
0.269412
-0.16646
0.254121
-0.163204
0.239057
-0.159748
0.224202
-0.156101
0.209551
-0.152271
0.195105
-0.148262
0.180874
-0.14408
0.166872
-0.139727
0.153116
-0.135202
0.139629
-0.130504
0.126435
-0.125627
0.113563
-0.120562
0.101044
-0.115295
0.0889119
-0.10981
0.0772043
-0.104082
0.0659635
-0.0980803
0.0552378
-0.0917638
0.045083
-0.0850768
0.0355657
-0.0779428
0.0267681
-0.0702531
0.018798
-0.0618465
0.0118051
-0.0524754
0.00601771
-0.0417339
0.00183769
-0.0289179
-0.0127172
0.334628
-0.162156
0.318167
-0.160757
0.302124
-0.158864
0.286431
-0.156631
0.27103
-0.154104
0.255887
-0.151317
0.240982
-0.148299
0.226303
-0.145069
0.211848
-0.141645
0.197618
-0.138041
0.183624
-0.134268
0.169877
-0.130333
0.156393
-0.126243
0.143191
-0.122
0.130292
-0.117605
0.117719
-0.113054
0.105496
-0.108339
0.0936504
-0.10345
0.082213
-0.0983723
0.0712162
-0.093085
0.0606968
-0.087561
0.050697
-0.081764
0.0412657
-0.0756455
0.0324617
-0.0691388
0.0243582
-0.0621496
0.0170517
-0.05454
0.010677
-0.0461008
0.00543846
-0.0364954
0.00167964
-0.0251591
-0.0110376
0.317358
-0.146419
0.301796
-0.145194
0.28649
-0.143558
0.271431
-0.141573
0.256605
-0.139278
0.242002
-0.136715
0.227619
-0.133915
0.213457
-0.130907
0.199521
-0.12771
0.185823
-0.124343
0.172374
-0.120819
0.159192
-0.11715
0.146292
-0.113343
0.133694
-0.109402
0.121418
-0.105329
0.109484
-0.10112
0.0979165
-0.0967712
0.0867392
-0.0922729
0.0759791
-0.0876121
0.0656654
-0.0827713
0.0558312
-0.0777267
0.0465139
-0.0724466
0.0377572
-0.0668889
0.029614
-0.0609956
0.0221504
-0.0546859
0.0154532
-0.0478429
0.00964385
-0.0402914
0.00490315
-0.0317547
0.00152384
-0.0217798
-0.00951376
0.300886
-0.131446
0.286051
-0.130359
0.271388
-0.128895
0.256907
-0.127091
0.242617
-0.124988
0.228526
-0.122625
0.214647
-0.120036
0.200989
-0.117249
0.187568
-0.114289
0.174398
-0.111173
0.161495
-0.107917
0.148877
-0.104532
0.13656
-0.101026
0.124562
-0.0974047
0.112902
-0.0936688
0.1016
-0.0898174
0.0906745
-0.085846
0.0801487
-0.0817471
0.0700461
-0.0775095
0.0603926
-0.0731178
0.0512174
-0.0685515
0.0425538
-0.0637831
0.034441
-0.0587761
0.0269264
-0.053481
0.0200694
-0.047829
0.0139482
-0.0417216
0.00867053
-0.0350137
0.00439473
-0.0274789
0.00136773
-0.0187528
-0.00814603
0.285161
-0.117108
0.270923
-0.116121
0.256815
-0.114787
0.242859
-0.113135
0.229076
-0.111205
0.215486
-0.109035
0.202108
-0.106658
0.188961
-0.104102
0.176061
-0.101389
0.163427
-0.0985388
0.151076
-0.0955653
0.139023
-0.0924798
0.127287
-0.0892902
0.115884
-0.0860013
0.10483
-0.082615
0.0941433
-0.0791307
0.0838418
-0.0755446
0.0739449
-0.0718502
0.0644735
-0.0680381
0.0554506
-0.0640949
0.046902
-0.0600029
0.0388576
-0.0557387
0.0313523
-0.0512708
0.0244286
-0.0465573
0.0181398
-0.0415401
0.0125554
-0.0361372
0.00777062
-0.0302289
0.00392228
-0.0236306
0.00121781
-0.0160483
-0.00692822
0.270158
-0.103308
0.256441
-0.102404
0.242837
-0.101183
0.229377
-0.0996745
0.216087
-0.0979154
0.202994
-0.0959415
0.19012
-0.0937837
0.177486
-0.0914678
0.165112
-0.089015
0.153016
-0.0864426
0.141214
-0.0837641
0.129724
-0.0809897
0.118561
-0.0781269
0.10774
-0.07518
0.0972756
-0.072151
0.0871844
-0.0690394
0.077482
-0.0658422
0.0681856
-0.0625538
0.0593137
-0.0591662
0.0508866
-0.0556678
0.0429274
-0.0520437
0.0354625
-0.0482738
0.0285233
-0.0443316
0.0221476
-0.0401816
0.016383
-0.0357755
0.0112912
-0.0310454
0.00695528
-0.0258931
0.00349314
-0.0201684
0.00107906
-0.0136342
-0.00584915
0.255881
-0.0899915
0.242644
-0.0891671
0.229519
-0.0880586
0.21654
-0.0866957
0.203738
-0.0851132
0.19114
-0.0833433
0.178771
-0.0814141
0.166651
-0.0793487
0.154802
-0.077166
0.143241
-0.0748814
0.131984
-0.072507
0.121046
-0.0700519
0.110442
-0.0675226
0.100185
-0.064923
0.0902891
-0.062255
0.0807677
-0.059518
0.0716352
-0.0567097
0.0629066
-0.0538253
0.0545984
-0.0508579
0.0467286
-0.047798
0.0393176
-0.0446327
0.0323891
-0.0413453
0.025971
-0.0379135
0.0200972
-0.0343078
0.0148098
-0.0304881
0.0101632
-0.0263988
0.00623011
-0.0219599
0.00311156
-0.0170499
0.000954691
-0.0114774
-0.00489446
0.242341
-0.0771337
0.229567
-0.076393
0.216912
-0.0754034
0.204411
-0.0741942
0.192094
-0.0727969
0.179991
-0.0712402
0.168126
-0.0695486
0.156519
-0.0677421
0.145191
-0.0658373
0.134156
-0.0638474
0.123432
-0.0617828
0.113032
-0.0596513
0.102967
-0.0574585
0.0932521
-0.0552077
0.0838976
-0.0529005
0.0749162
-0.0505366
0.0663204
-0.0481139
0.0581237
-0.0456285
0.0503403
-0.0430746
0.0429865
-0.0404442
0.0360804
-0.0377266
0.0296431
-0.034908
0.0236995
-0.0319699
0.0182797
-0.028888
0.0134213
-0.0256297
0.00917218
-0.0221497
0.00559553
-0.0183833
0.00277852
-0.0142328
0.00084603
-0.00954488
-0.00404843
0.229554
-0.0647273
0.217239
-0.064078
0.205051
-0.0632163
0.193027
-0.0621699
0.181197
-0.0609666
0.169588
-0.0596311
0.158223
-0.058184
0.147123
-0.0566424
0.136306
-0.0550201
0.125787
-0.0533282
0.11558
-0.0515755
0.105697
-0.0497683
0.0961496
-0.0479114
0.0869495
-0.0460076
0.078107
-0.044058
0.0696328
-0.0420625
0.0615383
-0.0400193
0.053835
-0.0379253
0.0465361
-0.0357756
0.0396557
-0.0335638
0.0332101
-0.031281
0.0272181
-0.028916
0.0217021
-0.0264538
0.0166889
-0.0238748
0.0122118
-0.0211527
0.00831316
-0.018251
0.00504827
-0.0151184
0.00249262
-0.0116772
0.000753101
-0.00780536
-0.00329533
0.217522
-0.0527744
0.205668
-0.0522247
0.193952
-0.0514995
0.182406
-0.050624
0.171061
-0.0496216
0.159943
-0.0485128
0.149073
-0.0473143
0.138471
-0.0460403
0.128153
-0.0447018
0.118132
-0.043308
0.108423
-0.0418658
0.0990347
-0.0403805
0.0899791
-0.0388557
0.0812653
-0.0372938
0.0729032
-0.0356958
0.0649021
-0.0340614
0.057272
-0.0323893
0.0500236
-0.0306768
0.0431682
-0.0289203
0.0367187
-0.0271143
0.0306898
-0.0252521
0.0250982
-0.0233245
0.0199641
-0.0213197
0.0153115
-0.0192222
0.0111701
-0.0170113
0.00757747
-0.0146584
0.00458237
-0.0121233
0.00225073
-0.00934555
0.000675056
-0.00622969
-0.00262028
0.206237
-0.0412813
0.19485
-0.0408379
0.183607
-0.0402561
0.17254
-0.0395569
0.161677
-0.0387594
0.151044
-0.0378796
0.140661
-0.0369307
0.130544
-0.0359236
0.120709
-0.034867
0.111169
-0.0337681
0.101936
-0.0326321
0.0930182
-0.0314632
0.0844266
-0.0302641
0.0761696
-0.0290367
0.0682555
-0.0277817
0.0606931
-0.026499
0.0534912
-0.0251874
0.0466594
-0.023845
0.0402079
-0.0224688
0.0341484
-0.0210548
0.0284941
-0.0195977
0.0232602
-0.0180906
0.0184648
-0.0165243
0.0141296
-0.0148871
0.0102814
-0.0131631
0.00695382
-0.0113308
0.00419014
-0.00935963
0.00204865
-0.00720405
0.000610534
-0.00479157
-0.00200974
0.195675
-0.0302544
0.184759
-0.0299219
0.17399
-0.0294871
0.1634
-0.0289668
0.153016
-0.0283749
0.142859
-0.0277232
0.13295
-0.0270215
0.123304
-0.0262778
0.113936
-0.0254984
0.104856
-0.0246883
0.0960755
-0.0238516
0.0876035
-0.0229912
0.0794484
-0.0221091
0.0716182
-0.0212066
0.0641207
-0.0202842
0.0569636
-0.0193418
0.0501549
-0.0183787
0.0437033
-0.0173934
0.0376183
-0.0163838
0.0319104
-0.0153469
0.0265915
-0.0142789
0.0216757
-0.0131747
0.0171794
-0.012028
0.0131223
-0.0108301
0.00952889
-0.00956967
0.00642938
-0.00823129
0.0038629
-0.00679315
0.00188159
-0.00522274
0.00055791
-0.00346789
-0.00145183
0.185801
-0.0196984
0.175357
-0.0194783
0.165061
-0.0191915
0.154944
-0.0188491
0.145029
-0.0184604
0.135339
-0.0180331
0.125891
-0.0175735
0.1167
-0.0170868
0.107779
-0.0165771
0.0991382
-0.0160477
0.0907877
-0.0155011
0.0827359
-0.0149393
0.0749903
-0.0143635
0.0675584
-0.0137747
0.0604472
-0.013173
0.0536639
-0.0125585
0.0472158
-0.0119307
0.0411109
-0.0112885
0.0353579
-0.0106307
0.0299663
-0.00995537
0.0249474
-0.00925997
0.020314
-0.00854131
0.0160813
-0.0077952
0.0122673
-0.00701616
0.00889458
-0.00619691
0.0059908
-0.00532751
0.00359168
-0.00439403
0.00174462
-0.00337568
0.000515484
-0.00223875
-0.000936347
0.176566
-0.00961439
0.166594
-0.00950591
0.156767
-0.00936483
0.147115
-0.00919673
0.137661
-0.00900613