/*--------------------------------*- C++ -*----------------------------------*\
  =========                 |
  \\      /  F ield         | OpenFOAM: The Open Source CFD Toolbox
   \\    /   O peration     | Website:  https://openfoam.org
    \\  /    A nd           | Version:  12
     \\/     M anipulation  |
\*---------------------------------------------------------------------------*/
FoamFile
{
    format      ascii;
    class       volScalarField;
    location    "400";
    object      pMean;
}
// * * * * * * * * * * * * * * * * * * * * * * * * * * * * * * * * * * * * * //

dimensions      [0 2 -2 0 0 0 0];

internalField   nonuniform List<scalar> 
6750
(
0.0130023
0.012977
0.0129371
0.0127645
0.0117729
0.0146315
0.0146008
0.0144807
0.0142223
0.013876
0.0165197
0.0164669
0.0163438
0.0161528
0.0160086
0.0184848
0.0183973
0.0182804
0.0181466
0.0180775
0.0204285
0.0202972
0.0201707
0.0200651
0.0200343
0.0222714
0.0220917
0.021945
0.0218502
0.0218376
0.0239646
0.0237354
0.0235647
0.0234739
0.0234709
0.0254789
0.0252009
0.0250063
0.0249175
0.024921
0.0267959
0.0264715
0.0262548
0.026168
0.0261764
0.0279051
0.0275384
0.0273028
0.0272185
0.0272307
0.0288036
0.0283999
0.0281493
0.0280679
0.028083
0.0294951
0.0290607
0.0287993
0.0287209
0.0287379
0.0299893
0.0295304
0.0292631
0.0291877
0.0292056
0.0303011
0.0298234
0.0295565
0.0294826
0.0295002
0.0304443
0.0299608
0.0296993
0.0296231
0.0296388
0.0304444
0.0299609
0.0296994
0.0296232
0.0296389
0.0303014
0.0298237
0.0295568
0.0294829
0.0295005
0.0299898
0.0295309
0.0292636
0.0291882
0.0292061
0.0294957
0.0290614
0.0288
0.0287216
0.0287386
0.0288045
0.0284008
0.0281502
0.0280688
0.0280839
0.0279061
0.0275394
0.0273039
0.0272196
0.0272318
0.0267971
0.0264727
0.0262561
0.0261693
0.0261777
0.0254803
0.0252023
0.0250076
0.0249189
0.0249224
0.0239661
0.0237369
0.0235662
0.0234755
0.0234725
0.022273
0.0220933
0.0219466
0.0218519
0.0218393
0.0204303
0.0202989
0.0201725
0.0200669
0.0200361
0.0184866
0.0183991
0.0182822
0.0181484
0.0180793
0.0165216
0.0164688
0.0163457
0.0161547
0.0160105
0.0146334
0.0146027
0.0144826
0.0142242
0.0138779
0.0130042
0.0129789
0.012939
0.0127664
0.0117748
0.00584153
0.00639429
0.00778681
0.00880931
0.00954601
0.0101307
0.0105904
0.0109392
0.0112043
0.0113934
0.0114835
0.0115387
0.0115351
0.0114699
0.0113413
0.0111449
0.0108764
0.0105365
0.0101257
0.00964285
0.00908411
0.00854181
0.00796346
0.00736358
0.00676043
0.0061654
0.00558731
0.00504252
0.00454115
0.00398755
0.00963608
0.0103819
0.0111369
0.0115078
0.011716
0.0118438
0.0118945
0.0118792
0.0118239
0.0117225
0.0115535
0.0114124
0.0112654
0.0111162
0.0109632
0.0107969
0.0106044
0.0103735
0.0100923
0.00975623
0.00937829
0.00889432
0.0083824
0.00783165
0.00724925
0.00664571
0.00602844
0.00541332
0.004845
0.00428488
0.012092
0.0122609
0.0125594
0.0126999
0.0127669
0.0127721
0.0127048
0.0125764
0.012405
0.0121564
0.0118489
0.0115567
0.0112466
0.0109296
0.0106117
0.0102927
0.00996926
0.00963562
0.00928541
0.00891292
0.00851553
0.0080935
0.00764883
0.007181
0.0066938
0.00619215
0.00567628
0.00515667
0.00471708
0.00440941
0.0135592
0.0133458
0.0134712
0.0135477
0.0135543
0.01349
0.0133502
0.0131508
0.0128973
0.0125306
0.0121228
0.0117023
0.011248
0.0107765
0.0102995
0.00982524
0.0093593
0.00890453
0.0084615
0.00802834
0.00760266
0.00718745
0.00677733
0.0063686
0.00596011
0.00555107
0.00513412
0.00471147
0.0044019
0.00439121
0.0146911
0.0143419
0.0143918
0.0144031
0.0143321
0.0141853
0.0139634
0.0136798
0.0133291
0.0128498
0.0123413
0.0117968
0.0112115
0.0106051
0.00999338
0.00939007
0.00880678
0.00825201
0.00773085
0.00724476
0.00679261
0.00637271
0.00598056
0.00561034
0.00525719
0.00491632
0.00457419
0.00422451
0.00401404
0.00427727
0.0156889
0.0153062
0.0152962
0.0152324
0.0150803
0.0148508
0.0145453
0.0141733
0.0137157
0.0131317
0.0125185
0.0118542
0.0111462
0.0104164
0.00968392
0.00896664
0.00828045
0.00763766
0.00704636
0.00651016
0.00602871
0.00559875
0.00521488
0.0048698
0.0045564
0.00426719
0.00398369
0.00369294
0.0035645
0.00407455
0.0165856
0.0162109
0.0161462
0.0160099
0.0157823
0.0154747
0.015089
0.0146302
0.0140614
0.0133816
0.0126638
0.011885
0.011061
0.0102156
0.00937074
0.0085479
0.00776626
0.00704103
0.00638257
0.00579606
0.00528179
0.00483619
0.00445275
0.00412294
0.00383807
0.00358862
0.00335196
0.00311046
0.00305418
0.00378317
0.0174007
0.0170602
0.0169474
0.0167427
0.0164435
0.01606
0.0155966
0.0150515
0.0143717
0.0136038
0.0127815
0.0118927
0.0109583
0.0100035
0.00905301
0.00813107
0.00725954
0.00645599
0.00573256
0.00509561
0.00454602
0.00408008
0.00369055
0.00336791
0.00310235
0.00288255
0.00268251
0.00248137
0.00248866
0.00340655
0.0181549
0.017867
0.0177112
0.0174401
0.0170709
0.0166134
0.0160732
0.0154373
0.0146546
0.0137999
0.0128742
0.0118791
0.0108389
0.00977986
0.00872906
0.00771319
0.00675626
0.00587771
0.00509112
0.00440379
0.00381703
0.00332707
0.00292615
0.00260403
0.00235001
0.00215131
0.00197889
0.00181032
0.00187363
0.00295001
0.0188642
0.0186408
0.0184455
0.018109
0.0176705
0.0171414
0.0165235
0.0157899
0.0149158
0.0139711
0.012944
0.0118462
0.0107036
0.0095442
0.00839711
0.00729109
0.00625201
0.00530081
0.00445224
0.00371435
0.0030888
0.00257174
0.00215507
0.00182798
0.00157898
0.0013942
0.00124164
0.00109888
0.00121204
0.00241871
0.0195404
0.0193894
0.0191574
0.0187551
0.0182471
0.0176474
0.0169508
0.0161162
0.0151585
0.014121
0.0129939
0.0117955
0.0105531
0.00929594
0.00805529
0.00686165
0.00574247
0.00471999
0.00380991
0.0030209
0.00235488
0.00180799
0.0013718
0.00103505
0.000785695
0.000608704
0.000469461
0.0003468
0.000504704
0.00181675
0.020193
0.0201198
0.0198533
0.0193845
0.0188064
0.0181368
0.0173576
0.0164237
0.015385
0.0142526
0.0130264
0.0117286
0.0103876
0.00903433
0.00770167
0.00642177
0.00522346
0.00413013
0.00315829
0.00231713
0.00160881
0.00102943
0.000570304
0.000219799
-3.46132e-05
-0.000209097
-0.000340566
-0.000448071
-0.000249753
0.00114672
0.0208313
0.0208395
0.0205404
0.0200046
0.0193569
0.0186133
0.0177444
0.0167209
0.0155975
0.0143686
0.0130434
0.0116466
0.0102073
0.00875837
0.00733413
0.00596823
0.00469076
0.0035261
0.00249152
0.00159665
0.000843886
0.000229265
-0.000256091
-0.000624145
-0.000887841
-0.00106447
-0.00119314
-0.00128983
-0.00105469
0.000409271
0.0214643
0.0215553
0.0212256
0.020622
0.0199036
0.0190836
0.0181188
0.0170122
0.0157986
0.0144717
0.0130469
0.0115502
0.0100121
0.00846682
0.00695033
0.00549762
0.00413993
0.00290257
0.00180349
0.00085277
5.2969e-05
-0.000599875
-0.00111484
-0.00150416
-0.00178113
-0.00196424
-0.00209464
-0.00218439
-0.00191549
-0.000397157
0.0220994
0.0222768
0.0219178
0.021245
0.0204539
0.019552
0.0184898
0.0173008
0.0159921
0.0145649
0.0130387
0.0114403
0.00980149
0.00815813
0.00654761
0.00500618
0.00356619
0.00225382
0.00108768
7.82476e-05
-0.000771705
-0.00146615
-0.00201431
-0.00242867
-0.00272291
-0.00291671
-0.00305315
-0.00313959
-0.00283963
-0.00127661
0.0227439
0.0230155
0.0226291
0.0218856
0.0210149
0.0200205
0.0188679
0.0175902
0.0161816
0.0146511
0.0130204
0.0113172
0.00957474
0.00783037
0.00612285
0.00448966
0.00296421
0.00157353
0.000336856
-0.000734903
-0.00163878
-0.00237872
-0.0029641
-0.00340755
-0.00372319
-0.00393195
-0.00407871
-0.00416542
-0.00383687
-0.00223591
0.023408
0.0237842
0.0233713
0.0225532
0.0215957
0.0204997
0.0192598
0.0178848
0.0163712
0.0147332
0.0129934
0.0111811
0.00933072
0.00748109
0.00567233
0.00394312
0.00232789
0.000854521
-0.000457136
-0.00159574
-0.0025581
-0.00334812
-0.00397528
-0.00445237
-0.00479384
-0.0050221
-0.0051837
-0.00527436
-0.00491955
-0.00328504
0.0241088
0.0245964
0.0241587
0.023256
0.0222013
0.0210043
0.0196712
0.0181903
0.0165655
0.0148139
0.0129593
0.0110319
0.00906777
0.00710716
0.00519149
0.00336064
0.00165004
8.83903e-05
-0.00130381
-0.00251479
-0.0035411
-0.00438661
-0.00506086
-0.00557676
-0.00594913
-0.00620189
-0.00638323
-0.00648191
-0.00610324
-0.00443771
0.0248689
0.0254638
0.025003
0.0240091
0.022843
0.0215463
0.0201079
0.0185126
0.0167692
0.0148964
0.012919
0.0108689
0.0087835
0.00670449
0.00467464
0.00273497
0.000921942
-0.000734928
-0.00221451
-0.00350457
-0.00460143
-0.00550885
-0.00623642
-0.00679719
-0.00720632
-0.0074893
-0.00769584
-0.00780713
-0.00740716
-0.005712
0.0257078
0.0264074
0.0259233
0.024826
0.0235391
0.0221357
0.02058
0.01886
0.0169879
0.0149836
0.0128736
0.0106908
0.00847448
0.00626766
0.00411443
0.002057
0.000132798
-0.00162782
-0.00320311
-0.00458037
-0.00575567
-0.00673265
-0.00752094
-0.00813368
-0.00858639
-0.00890626
-0.00914443
-0.00927381
-0.00885578
-0.00713167
0.026653
0.0274595
0.0269417
0.0257224
0.0243131
0.0227869
0.0210994
0.0192417
0.0172277
0.015079
0.0128232
0.0104952
0.00813579
0.00578931
0.00350124
0.00131494
-0.000731164
-0.00260595
-0.00428703
-0.00576129
-0.0070245
-0.00808022
-0.00893808
-0.00961126
-0.0101157
-0.0104805
-0.0107582
-0.0109121
-0.01048
-0.00872768
0.0277461
0.0286456
0.0280817
0.0267333
0.0251878
0.0235182
0.021681
0.0196684
0.0174955
0.0151853
0.0127674
0.0102783
0.00776024
0.00525925
0.00282208
0.000493231
-0.00168795
-0.00368959
-0.00548871
-0.0070718
-0.00843436
-0.00957987
-0.0105179
-0.0112618
-0.0118279
-0.0122472
-0.0125735
-0.0127603
-0.0123196
-0.0105407
0.0290362
0.0300131
0.029387
0.0278981
0.0261902
0.0243526
0.0223431
0.0201531
0.0177989
0.0153054
0.0127042
0.0100334
0.00733723
0.00466308
0.00205903
-0.000429322
-0.00276178
-0.00490578
-0.00683786
-0.00854415
-0.0100199
-0.0112686
-0.0122998
-0.0131269
-0.0137668
-0.0142522
-0.0146386
-0.0148689
-0.0144274
-0.0126253
0.0305952
0.0316271
0.0309209
0.0292619
0.0273576
0.0253208
0.0231087
0.0207113
0.0181463
0.0154409
0.0126288
0.0097501
0.00685078
0.00397984
0.00118661
-0.00148236
-0.00398613
-0.00629162
-0.00837499
-0.0102221
-0.0118281
-0.0131965
-0.0143367
-0.0152622
-0.0159907
-0.0165569
-0.0170176
-0.0173046
-0.0168738
-0.0150555
0.0325394
0.0335852
0.0327604
0.0308856
0.0287419
0.0264638
0.0240076
0.0213622
0.0185468
0.0155914
0.012532
0.00941098
0.00627619
0.00317818
0.000167422
-0.00270877
-0.00540896
-0.00789979
-0.0101573
-0.0121671
-0.0139245
-0.0154329
-0.0167019
-0.017745
-0.0185808
-0.0192462
-0.0197988
-0.0201597
-0.0197562
-0.0179355
0.0350094
0.0360212
0.0350148
0.0328617
0.0304175
0.027839
0.0250807
0.0221305
0.0190101
0.0157525
0.0123965
0.0089872
0.00557419
0.00220953
-0.00105543
-0.00417298
-0.00710163
-0.00980812
-0.0122686
-0.014469
-0.0164046
-0.0180789
-0.0195017
-0.0206866
-0.0216529
-0.02244
-0.023107
-0.023564
-0.0232129
-0.0214153
0.038273
0.0391418
0.0378531
0.0353299
0.0324972
0.0295309
0.0263851
0.0230478
0.019544
0.0159104
0.0121893
0.00842853
0.00467963
0.000995683
-0.00257172
-0.00597525
-0.00917417
-0.0121361
-0.0148378
-0.0172659
-0.0194158
-0.0212911
-0.0229015
-0.0242608
-0.0253888
-0.0263267
-0.027135
-0.0277167
-0.0274563
-0.0257287
0.0427518
0.0432639
0.0415132
0.0384788
0.0351278
0.0316459
0.0279884
0.0241457
0.0201469
0.0160337
0.0118526
0.00765424
0.00349205
-0.000580612
-0.00451303
-0.00825961
-0.0117818
-0.0150493
-0.0180409
-0.0207441
-0.0231555
-0.0252788
-0.0271234
-0.028703
-0.0300377
-0.0311695
-0.0321582
-0.0329069
-0.0328071
-0.0312483
0.049337
0.0491115
0.046606
0.0428541
0.0387789
0.0345562
0.0301526
0.0255728
0.0208576
0.0160584
0.0112291
0.006425
0.00170076
-0.00289135
-0.00730383
-0.0114954
-0.0154322
-0.0190885
-0.0224455
-0.0254918
-0.0282273
-0.0306645
-0.0328006
-0.0346484
-0.0362279
-0.0375779
-0.0387538
-0.0396745
-0.0398086
-0.0386038
0.0608944
0.0589603
0.0548575
0.0498346
0.0445554
0.0391169
0.0335141
0.0277823
0.0219803
0.0161697
0.0104088
0.00475209
-0.000751138
-0.00605791
-0.0111321
-0.0159447
-0.0204727
-0.0246992
-0.0286136
-0.0322105
-0.0354833
-0.0384223
-0.0410466
-0.0433625
-0.0453792
-0.0471219
-0.0486366
-0.0499097
-0.0506152
-0.0501393
0.0093966
0.0103769
0.0121375
0.0135459
0.0147363
0.0158499
0.0169184
0.0179503
0.0189552
0.0199426
0.020921
0.0218987
0.0228845
0.0238876
0.0249176
0.0259859
0.0271065
0.028297
0.0295774
0.0309711
0.0325082
0.0342302
0.0361881
0.0384519
0.0411166
0.0443248
0.0482703
0.0531912
0.0593042
0.0672819
0.0137449
0.0147592
0.015917
0.0168903
0.0177662
0.0186055
0.0194196
0.0202129
0.0209926
0.021767
0.0225439
0.0233316
0.0241384
0.0249736
0.0258472
0.0267711
0.0277598
0.028831
0.0300057
0.0313101
0.0327782
0.0344556
0.0364018
0.0386992
0.0414636
0.0448659
0.0491518
0.0546702
0.0619078
0.0715937
0.0161331
0.0170392
0.0179203
0.0187119
0.0194828
0.0202502
0.0210112
0.021767
0.0225227
0.0232841
0.0240577
0.0248502
0.0256692
0.0265232
0.0274221
0.0283778
0.0294048
0.0305211
0.0317488
0.0331161
0.0346599
0.0364291
0.0384895
0.0409326
0.0438878
0.0475431
0.0521763
0.0581924
0.0662436
0.0771557
0.0182254
0.0190223
0.0197883
0.0204996
0.021206
0.0219179
0.0226347
0.0233594
0.0240971
0.0248536
0.0256347
0.0264471
0.027298
0.028196
0.029151
0.0301754
0.0312839
0.0324952
0.0338327
0.035326
0.0370144
0.0389497
0.0412021
0.0438687
0.0470867
0.0510535
0.0560611
0.0625295
0.0712005
0.0829382
0.0201787
0.0208818
0.0215574
0.0221969
0.0228426
0.0235051
0.0241854
0.0248864
0.0256125
0.0263689
0.0271609
0.0279949
0.028878
0.029819
0.0308281
0.031918
0.0331043
0.0344064
0.0358489
0.0374634
0.0392912
0.0413871
0.0438247
0.0467058
0.0501732
0.0544316
0.0597825
0.0666553
0.0758741
0.088355
0.0219635
0.022583
0.0231815
0.0237605
0.0243583
0.0249841
0.0256388
0.0263249
0.0270464
0.0278076
0.0286138
0.029471
0.0303863
0.0313686
0.0324282
0.0335782
0.0348347
0.036218
0.0377537
0.0394748
0.0414246
0.0436599
0.0462576
0.0493232
0.053004
0.0575113
0.0631555
0.070378
0.0800838
0.0932682
0.0235755
0.0241202
0.024653
0.0251826
0.0257428
0.026341
0.0269779
0.0276554
0.028377
0.0291468
0.0299696
0.0308513
0.0317989
0.0328211
0.0339286
0.0351347
0.0364559
0.0379131
0.0395328
0.0413491
0.0434065
0.045764
0.0485007
0.0517248
0.0555879
0.0603062
0.0661988
0.0737195
0.0838395
0.0976482
0.0250093
0.0254866
0.0259631
0.0264522
0.0269827
0.0275603
0.0281849
0.0288581
0.0295831
0.0303635
0.0312038
0.0321097
0.0330881
0.0341478
0.0352994
0.0365566
0.0379361
0.0394595
0.0411537
0.043054
0.0452058
0.0476696
0.0505262
0.0538863
0.0579044
0.0628012
0.0689029
0.0766748
0.0871347
0.101469
0.0262559
0.0266728
0.0271015
0.0275579
0.0280654
0.0286276
0.0292441
0.0299162
0.0306464
0.031438
0.0322953
0.0332238
0.0342303
0.0353235
0.0365143
0.0378163
0.0392468
0.0408275
0.0425861
0.0445583
0.0467907
0.0493446
0.0523025
0.0557767
0.0599242
0.0649692
0.0712439
0.0792235
0.0899542
0.104716
0.0273084
0.0276722
0.0280612
0.0284918
0.0289818
0.0295329
0.0301443
0.030817
0.031553
0.0323554
0.0332283
0.0341767
0.0352077
0.0363298
0.037554
0.0388941
0.0403675
0.0419963
0.0438086
0.0458406
0.0481396
0.0507678
0.0538085
0.0573758
0.0616285
0.0667932
0.0732076
0.0813542
0.0922919
0.107398
0.0281639
0.0284828
0.02884
0.0292509
0.0297278
0.030271
0.0308794
0.0315536
0.0322954
0.0331074
0.0339935
0.0349588
0.0360101
0.0371561
0.0384076
0.0397787
0.0412868
0.0429544
0.0448098
0.0468897
0.0492418
0.0519289
0.0550354
0.0586761
0.0630114
0.0682699
0.0747931
0.0830699
0.0941582
0.109538
0.0288248
0.0291075
0.0294405
0.029837
0.0303046
0.0308424
0.0314492
0.0321251
0.0328718
0.0336917
0.0345885
0.0355672
0.0366344
0.037799
0.0390718
0.0404668
0.0420017
0.0436991
0.0455875
0.0477039
0.0500964
0.0528283
0.0559845
0.0596806
0.0640781
0.0694068
0.0760115
0.0843852
0.0955772
0.111169
0.0292989
0.0295547
0.0298705
0.0302571
0.0307185
0.0312527
0.0318586
0.0325362
0.0332867
0.0341126
0.0350172
0.0360057
0.0370846
0.0382626
0.0395507
0.0409629
0.042517
0.0442357
0.0461477
0.0482901
0.0507114
0.053475
0.0566664
0.0604016
0.0648429
0.0702209
0.0768829
0.0853242
0.0965816
0.112331
0.0295984
0.0298366
0.0301417
0.0305223
0.0309798
0.0315121
0.0321176
0.0327964
0.0335496
0.0343793
0.0352891
0.0362838
0.0373702
0.0385568
0.0398547
0.0412779
0.0428443
0.0445765
0.0465034
0.0486624
0.0511018
0.0538856
0.0570991
0.0608591
0.0653279
0.0707368
0.0774348
0.0859177
0.097208
0.113072
0.0297391
0.0299689
0.0302688
0.0306466
0.0311025
0.0316339
0.0322393
0.0329188
0.0336732
0.0345049
0.0354172
0.036415
0.037505
0.0386957
0.0399983
0.0414268
0.042999
0.0447377
0.0466718
0.0488386
0.0512868
0.0540801
0.0573043
0.061076
0.065558
0.0709816
0.0776968
0.0861989
0.0974984
0.11343
0.0297392
0.029969
0.0302689
0.0306467
0.0311026
0.031634
0.0322394
0.0329189
0.0336733
0.034505
0.0354172
0.0364151
0.0375051
0.0386958
0.0399984
0.0414269
0.0429991
0.0447377
0.0466718
0.0488387
0.0512868
0.0540802
0.0573044
0.0610761
0.0655581
0.0709816
0.0776968
0.0861989
0.0974985
0.11343
0.0295987
0.0298369
0.030142
0.0305226
0.0309801
0.0315124
0.0321179
0.0327967
0.0335498
0.0343796
0.0352893
0.0362841
0.0373705
0.0385571
0.0398549
0.0412781
0.0428445
0.0445766
0.0465036
0.0486625
0.051102
0.0538857
0.0570993
0.0608592
0.0653281
0.070737
0.0774349
0.0859177
0.0972081
0.113072
0.0292994
0.0295552
0.029871
0.0302576
0.030719
0.0312532
0.0318591
0.0325367
0.0332872
0.034113
0.0350176
0.0360061
0.037085
0.0382629
0.039551
0.0409632
0.0425173
0.044236
0.0461479
0.0482904
0.0507116
0.0534753
0.0566667
0.0604019
0.0648432
0.0702212
0.0768831
0.0853243
0.0965818
0.112331
0.0288255
0.0291082
0.0294412
0.0298377
0.0303053
0.0308431
0.0314498
0.0321258
0.0328725
0.0336923
0.0345891
0.0355677
0.036635
0.0377995
0.0390722
0.0404672
0.0420021
0.0436995
0.0455879
0.0477043
0.0500968
0.0528287
0.0559848
0.0596809
0.0640784
0.0694071
0.0760118
0.0843854
0.0955775
0.111169
0.0281648
0.0284837
0.0288409
0.0292518
0.0297287
0.0302719
0.0308803
0.0315544
0.0322962
0.0331081
0.0339942
0.0349595
0.0360108
0.0371567
0.0384082
0.0397793
0.0412874
0.0429549
0.0448103
0.0468902
0.0492422
0.0519294
0.0550358
0.0586765
0.0630118
0.0682704
0.0747936
0.0830703
0.0941587
0.109538
0.0273095
0.0276733
0.0280623
0.0284929
0.0289828
0.0295339
0.0301453
0.030818
0.031554
0.0323564
0.0332291
0.0341776
0.0352085
0.0363306
0.0375548
0.0388948
0.0403682
0.0419969
0.0438092
0.0458412
0.0481402
0.0507683
0.053809
0.0573763
0.061629
0.0667939
0.0732082
0.0813548
0.0922925
0.107398
0.0262572
0.0266741
0.0271028
0.0275591
0.0280666
0.0286288
0.0292452
0.0299173
0.0306474
0.031439
0.0322963
0.0332247
0.0342312
0.0353243
0.0365151
0.0378171
0.0392476
0.0408282
0.0425868
0.044559
0.0467914
0.0493453
0.052303
0.0557772
0.0599248
0.0649699
0.0712448
0.0792243
0.0899549
0.104717
0.0250107
0.025488
0.0259645
0.0264535
0.026984
0.0275616
0.0281861
0.0288594
0.0295843
0.0303647
0.031205
0.0321108
0.0330892
0.0341488
0.0353004
0.0365575
0.037937
0.0394603
0.0411546
0.0430548
0.0452066
0.0476703
0.0505268
0.0538869
0.0579051
0.0628022
0.068904
0.0766759
0.0871355
0.101469
0.0235771
0.0241218
0.0246546
0.0251841
0.0257442
0.0263425
0.0269793
0.0276568
0.0283783
0.0291481
0.0299708
0.0308524
0.0318
0.0328222
0.0339297
0.0351357
0.0364569
0.037914
0.0395337
0.04135
0.0434074
0.0457648
0.0485014
0.0517255
0.0555887
0.0603074
0.0662001
0.0737207
0.0838402
0.0976485
0.0219652
0.0225847
0.0231831
0.0237621
0.0243599
0.0249857
0.0256404
0.0263264
0.0270478
0.027809
0.0286151
0.0294723
0.0303876
0.0313697
0.0324293
0.0335793
0.0348358
0.036219
0.0377547
0.0394758
0.0414255
0.0436608
0.0462584
0.049324
0.053005
0.0575127
0.0631572
0.0703794
0.0800845
0.0932684
0.0201805
0.0208836
0.0215591
0.0221986
0.0228443
0.0235068
0.024187
0.0248879
0.0256141
0.0263704
0.0271624
0.0279963
0.0288794
0.0298203
0.0308294
0.0319192
0.0331054
0.0344075
0.03585
0.0374645
0.0392922
0.041388
0.0438256
0.0467068
0.0501743
0.0544331
0.0597843
0.0666567
0.0758749
0.088355
0.0182272
0.0190241
0.0197901
0.0205014
0.0212078
0.0219196
0.0226364
0.023361
0.0240987
0.0248552
0.0256363
0.0264486
0.0272994
0.0281974
0.0291524
0.0301766
0.0312852
0.0324965
0.0338339
0.0353271
0.0370155
0.0389507
0.0412031
0.0438698
0.047088
0.0510552
0.0560629
0.062531
0.0712011
0.0829381
0.0161349
0.0170411
0.0179222
0.0187137
0.0194846
0.020252
0.021013
0.0217688
0.0225244
0.0232858
0.0240593
0.0248518
0.0256707
0.0265247
0.0274235
0.0283792
0.0294061
0.0305224
0.0317501
0.0331174
0.0346611
0.0364302
0.0384907
0.0409339
0.0438893
0.0475449
0.052178
0.0581936
0.0662441
0.0771555
0.0137467
0.0147611
0.0159189
0.0168922
0.017768
0.0186073
0.0194214
0.0202147
0.0209944
0.0217687
0.0225457
0.0233333
0.0241401
0.0249752
0.0258487
0.0267726
0.0277613
0.0288324
0.030007
0.0313113
0.0327795
0.0344568
0.0364031
0.0387007
0.0414652
0.0448676
0.0491533
0.054671
0.0619081
0.0715936
0.00939851
0.0103789
0.0121394
0.0135478
0.0147382
0.0158517
0.0169202
0.0179521
0.018957
0.0199444
0.0209227
0.0219004
0.0228861
0.0238892
0.0249191
0.0259873
0.0271079
0.0282983
0.0295787
0.0309723
0.0325094
0.0342314
0.0361894
0.0384534
0.0411182
0.0443262
0.0482714
0.0531915
0.0593042
0.0672819
0.0608945
0.0589606
0.0548576
0.0498346
0.0445554
0.0391169
0.0335141
0.0277822
0.0219801
0.0161692
0.0104081
0.00475121
-0.000752251
-0.00605925
-0.0111337
-0.0159464
-0.0204746
-0.0247012
-0.0286157
-0.0322127
-0.0354855
-0.0384246
-0.0410489
-0.0433648
-0.0453815
-0.0471241
-0.0486389
-0.049912
-0.0506176
-0.0501419
0.0493369
0.0491113
0.0466058
0.0428541
0.038779
0.0345562
0.0301526
0.0255726
0.0208572
0.0160578
0.0112283
0.00642399
0.00169957
-0.00289272
-0.00730537
-0.0114971
-0.0154341
-0.0190905
-0.0224477
-0.0254941
-0.0282296
-0.0306669
-0.032803
-0.0346508
-0.0362303
-0.0375803
-0.0387561
-0.0396768
-0.0398108
-0.038606
0.0427519
0.0432642
0.0415135
0.0384792
0.0351281
0.0316461
0.0279884
0.0241454
0.0201464
0.016033
0.0118517
0.00765318
0.00349083
-0.000581985
-0.00451455
-0.00826128
-0.0117836
-0.0150513
-0.018043
-0.0207464
-0.0231579
-0.0252813
-0.027126
-0.0287056
-0.0300404
-0.031172
-0.0321607
-0.0329093
-0.0328093
-0.0312503
0.0382737
0.0391426
0.0378537
0.0353304
0.0324975
0.0295309
0.0263848
0.0230473
0.0195433
0.0159095
0.0121883
0.00842738
0.00467836
0.000994304
-0.00257322
-0.00597689
-0.00917596
-0.012138
-0.01484
-0.0172682
-0.0194183
-0.0212937
-0.0229043
-0.0242637
-0.0253917
-0.0263297
-0.0271378
-0.0277193
-0.0274586
-0.0257307
0.0350105
0.0360221
0.0350155
0.032862
0.0304175
0.0278386
0.02508
0.0221297
0.0190091
0.0157514
0.0123953
0.00898593
0.00557286
0.00220812
-0.00105694
-0.0041746
-0.0071034
-0.00981006
-0.0122707
-0.0144713
-0.0164072
-0.0180816
-0.0195046
-0.0206896
-0.021656
-0.0224431
-0.02311
-0.0235669
-0.0232155
-0.0214175
0.0325407
0.0335862
0.0327609
0.0308857
0.0287416
0.0264632
0.0240068
0.0213611
0.0185456
0.0155901
0.0125306
0.0094096
0.00627479
0.00317673
0.000165902
-0.00271038
-0.00541071
-0.0079017
-0.0101593
-0.0121694
-0.013927
-0.0154356
-0.0167047
-0.017748
-0.0185839
-0.0192493
-0.0198019
-0.0201628
-0.019759
-0.017938
0.0305965
0.0316279
0.0309212
0.0292619
0.0273572
0.0253201
0.0231077
0.0207102
0.018145
0.0154396
0.0126273
0.00974866
0.00684932
0.00397836
0.00118508
-0.00148397
-0.00398785
-0.00629347
-0.008377
-0.0102243
-0.0118305
-0.013199
-0.0143394
-0.015265
-0.0159937
-0.01656
-0.0170207
-0.0173077
-0.0168768
-0.0150583
0.0290372
0.0300139
0.0293874
0.0278981
0.0261898
0.0243519
0.0223422
0.020152
0.0177976
0.0153041
0.0127027
0.010032
0.00733577
0.00466159
0.00205752
-0.000430898
-0.00276344
-0.00490756
-0.00683977
-0.00854621
-0.0100222
-0.011271
-0.0123024
-0.0131295
-0.0137696
-0.0142551
-0.0146416
-0.0148719
-0.0144304
-0.0126283
0.0277471
0.0286464
0.0280822
0.0267334
0.0251875
0.0235176
0.0216802
0.0196674
0.0174943
0.015184
0.012766
0.0102769
0.0077588
0.00525781
0.00282062
0.000491719
-0.00168954
-0.00369126
-0.0054905
-0.00707371
-0.0084364
-0.00958204
-0.0105202
-0.0112642
-0.0118305
-0.0122499
-0.0125763
-0.0127632
-0.0123226
-0.0105438
0.026654
0.0274603
0.0269422
0.0257226
0.024313
0.0227865
0.0210987
0.0192407
0.0172266
0.0150777
0.0128219
0.0104939
0.00813441
0.00578793
0.00349984
0.00131352
-0.000732644
-0.0026075
-0.00428867
-0.00576304
-0.00702636
-0.0080822
-0.00894019
-0.0096135
-0.0101181
-0.010483
-0.0107608
-0.0109149
-0.0104829
-0.00873069
0.0257088
0.0264083
0.0259239
0.0248263
0.0235391
0.0221353
0.0205793
0.0188591
0.0169868
0.0149825
0.0128723
0.0106895
0.00847318
0.00626637
0.00411313
0.00205568
0.000131433
-0.00162925
-0.0032046
-0.00458196
-0.00575735
-0.00673446
-0.00752288
-0.00813577
-0.00858863
-0.00890868
-0.00914699
-0.00927652
-0.00885862
-0.00713461
0.02487
0.0254648
0.0250037
0.0240094
0.0228431
0.021546
0.0201074
0.0185119
0.0167682
0.0148953
0.0129179
0.0108677
0.0087823
0.0067033
0.00467344
0.00273376
0.000920694
-0.000736227
-0.00221587
-0.00350601
-0.00460297
-0.0055105
-0.00623821
-0.00679915
-0.00720843
-0.00749155
-0.0076983
-0.00780977
-0.00740994
-0.00571487
0.02411
0.0245975
0.0241595
0.0232565
0.0222015
0.0210042
0.0196707
0.0181896
0.0165646
0.0148129
0.0129582
0.0110308
0.00906668
0.00710607
0.0051904
0.00335953
0.00164889
8.72009e-05
-0.00130506
-0.00251611
-0.00354252
-0.00438815
-0.00506254
-0.00557861
-0.00595115
-0.0062041
-0.00638564
-0.00648449
-0.00610596
-0.0044405
0.0234093
0.0237854
0.0233722
0.0225537
0.0215959
0.0204996
0.0192594
0.0178842
0.0163705
0.0147323
0.0129925
0.0111801
0.00932975
0.00748011
0.00567134
0.00394211
0.00232684
0.000853424
-0.000458291
-0.00159697
-0.00255942
-0.00334957
-0.00397688
-0.00445414
-0.00479581
-0.00502427
-0.00518605
-0.00527687
-0.00492219
-0.00328775
0.0227452
0.0230167
0.0226301
0.0218863
0.0210152
0.0200205
0.0188677
0.0175898
0.016181
0.0146504
0.0130195
0.0113163
0.00957389
0.0078295
0.00612195
0.00448873
0.00296324
0.00157251
0.000335772
-0.000736065
-0.00164004
-0.00238011
-0.00296565
-0.00340928
-0.0037251
-0.00393406
-0.00408101
-0.00416788
-0.00383944
-0.00223854
0.0221008
0.0222781
0.0219188
0.0212457
0.0204544
0.0195521
0.0184897
0.0173005
0.0159916
0.0145643
0.013038
0.0114396
0.00980076
0.00815736
0.0065468
0.00500532
0.00356528
0.00225285
0.00108664
7.71272e-05
-0.00077293
-0.0014675
-0.00201583
-0.00243036
-0.00272479
-0.00291879
-0.00305541
-0.003142
-0.00284216
-0.00127916
0.0214658
0.0215566
0.0212268
0.0206229
0.0199041
0.0190839
0.0181188
0.0170121
0.0157983
0.0144713
0.0130464
0.0115497
0.0100115
0.00846614
0.0069496
0.00549683
0.00413907
0.00290164
0.00180248
0.000851669
5.17562e-05
-0.000601223
-0.00111634
-0.00150584
-0.001783
-0.0019663
-0.00209688
-0.00218677
-0.00191797
-0.000399641
0.0208328
0.0208409
0.0205416
0.0200056
0.0193576
0.0186138
0.0177447
0.016721
0.0155974
0.0143684
0.0130431
0.0116462
0.0102068
0.00875779
0.00733347
0.00596749
0.00468994
0.0035252
0.00249052
0.00159556
0.000842666
0.000227905
-0.00025761
-0.000625834
-0.000889717
-0.00106653
-0.00119537
-0.00129219
-0.00105714
0.000406835
0.0201946
0.0201213
0.0198546
0.0193856
0.0188073
0.0181375
0.0173581
0.0164239
0.0153851
0.0142525
0.0130262
0.0117284
0.0103872
0.00903384
0.00770108
0.00642108
0.00522268
0.00412924
0.00315729
0.00231602
0.00160757
0.00102804
0.000568758
0.000218083
-3.65008e-05
-0.000211159
-0.000342789
-0.000450419
-0.000252176
0.00114432
0.019542
0.019391
0.0191588
0.0187563
0.0182481
0.0176482
0.0169514
0.0161166
0.0151587
0.0141211
0.0129939
0.0117954
0.0105528
0.00929554
0.00805477
0.00686101
0.00574171
0.0047191
0.0038089
0.00301976
0.00235361
0.00180657
0.00137022
0.00103331
0.00078379
0.000606639
0.000467251
0.000344465
0.0005023
0.00181437
0.0188659
0.0186425
0.018447
0.0181103
0.0176717
0.0171424
0.0165243
0.0157905
0.0149162
0.0139714
0.0129441
0.0118461
0.0107034
0.00954389
0.00839665
0.00729049
0.00625127
0.00529992
0.00445121
0.00371318
0.00308748
0.00257028
0.00215345
0.00182618
0.00157705
0.00139214
0.00123944
0.00109656
0.00120965
0.00241633
0.0181566
0.0178686
0.0177128
0.0174415
0.0170721
0.0166145
0.0160742
0.0154381
0.0146552
0.0138003
0.0128744
0.0118792
0.0108388
0.00977963
0.00872867
0.00771263
0.00675554
0.00587682
0.00509006
0.00440258
0.00381567
0.00332555
0.00292448
0.00260221
0.00234804
0.0021492
0.00197667
0.001808
0.00187126
0.00294765
0.0174025
0.0170619
0.016949
0.0167442
0.0164449
0.0160612
0.0155977
0.0150524
0.0143724
0.0136044
0.0127819
0.0118929
0.0109583
0.0100034
0.00905267
0.00813054
0.00725882
0.00645508
0.00573147
0.00509436
0.00454461
0.00407852
0.00368884
0.00336606
0.00310036
0.00288044
0.00268027
0.00247906
0.00248631
0.00340421
0.0165875
0.0162127
0.0161479
0.0160115
0.0157838
0.0154761
0.0150902
0.0146312
0.0140623
0.0133823
0.0126643
0.0118853
0.0110612
0.0102155
0.00937046
0.0085474
0.00776554
0.00704011
0.00638146
0.00579476
0.00528033
0.00483458
0.004451
0.00412105
0.00383606
0.00358651
0.00334978
0.00310823
0.00305187
0.00378084
0.0156907
0.015308
0.015298
0.0152341
0.0150819
0.0148523
0.0145467
0.0141744
0.0137167
0.0131325
0.0125191
0.0118546
0.0111465
0.0104164
0.00968368
0.00896617
0.00827974
0.00763673
0.00704521
0.00650882
0.0060272
0.00559709
0.00521308
0.00486788
0.00455437
0.00426507
0.00398151
0.00369068
0.00356219
0.00407225
0.014693
0.0143437
0.0143936
0.0144048
0.0143337
0.0141869
0.0139648
0.0136811
0.0133303
0.0128508
0.012342
0.0117973
0.0112118
0.0106052
0.00999319
0.00938961
0.00880607
0.00825106
0.00772967
0.00724338
0.00679106
0.00637101
0.00597873
0.00560839
0.00525515
0.00491421
0.00457204
0.00422229
0.00401184
0.00427503
0.0135611
0.0133477
0.0134731
0.0135494
0.0135561
0.0134916
0.0133518
0.0131522
0.0128986
0.0125316
0.0121237
0.011703
0.0112484
0.0107766
0.0102994
0.00982482
0.00935859
0.00890356
0.0084603
0.00802694
0.00760108
0.00718572
0.00677547
0.00636664
0.00595807
0.00554897
0.00513195
0.00470932
0.00439974
0.00438903
0.012094
0.0122628
0.0125613
0.0127018
0.0127687
0.0127738
0.0127064
0.0125779
0.0124063
0.0121576
0.0118499
0.0115575
0.011247
0.0109298
0.0106116
0.0102923
0.00996856
0.00963465
0.00928419
0.00891149
0.00851392
0.00809175
0.00764696
0.00717904
0.00669177
0.00619007
0.00567416
0.00515454
0.00471496
0.00440734
0.0096381
0.0103838
0.0111388
0.0115098
0.0117178
0.0118456
0.0118962
0.0118807
0.0118254
0.0117238
0.0115546
0.0114132
0.011266
0.0111165
0.0109631
0.0107965
0.0106037
0.0103725
0.0100911
0.00975471
0.00937656
0.00889251
0.00838051
0.0078297
0.00724723
0.00664365
0.00602639
0.0054113
0.00484299
0.00428291
0.00584352
0.00639634
0.00778888
0.00881137
0.00954807
0.0101327
0.0105924