/*--------------------------------*- C++ -*----------------------------------*\
  =========                 |
  \\      /  F ield         | OpenFOAM: The Open Source CFD Toolbox
   \\    /   O peration     | Website:  https://openfoam.org
    \\  /    A nd           | Version:  12
     \\/     M anipulation  |
\*---------------------------------------------------------------------------*/
FoamFile
{
    format      ascii;
    class       volScalarField;
    location    "400";
    object      pPrime2Mean;
}
// * * * * * * * * * * * * * * * * * * * * * * * * * * * * * * * * * * * * * //

dimensions      [0 4 -4 0 0 0 0];

internalField   nonuniform List<scalar> 
6750
(
0.0033054
0.00330063
0.00329464
0.00328933
0.00328312
0.00330593
0.00329922
0.00328871
0.00327625
0.00326314
0.00332077
0.00331246
0.00329885
0.00328145
0.00326274
0.00334923
0.00334039
0.00332574
0.00330671
0.0032863
0.00338954
0.00338143
0.00336796
0.00335026
0.0033313
0.0034388
0.00343255
0.00342209
0.00340805
0.00339294
0.00349335
0.00348981
0.00348373
0.00347507
0.00346566
0.00354935
0.00354907
0.00354824
0.00354611
0.00354368
0.00360319
0.00360641
0.00361123
0.00361616
0.00362136
0.00365185
0.0036585
0.0036689
0.00368085
0.00369371
0.00369303
0.00370282
0.00371832
0.00373671
0.00375668
0.00372527
0.0037377
0.00375746
0.00378131
0.00380736
0.00374787
0.00376229
0.00378529
0.00381329
0.00384401
0.00376079
0.0037765
0.00380159
0.00383229
0.00386608
0.00376455
0.00378085
0.00380687
0.0038388
0.00387402
0.00376004
0.00377625
0.00380214
0.00383392
0.00386897
0.00374723
0.00376268
0.00378737
0.00381761
0.00385091
0.00372534
0.00373932
0.00376167
0.00378891
0.0038188
0.00369398
0.00370582
0.0037247
0.00374751
0.00377242
0.00365333
0.00366241
0.00367683
0.00369397
0.00371255
0.0036042
0.00361007
0.00361927
0.0036298
0.00364109
0.00354821
0.00355059
0.00355413
0.00355756
0.00356109
0.00348773
0.00348661
0.00348448
0.00348083
0.00347671
0.00342588
0.00342151
0.00341415
0.00340401
0.00339295
0.00336631
0.00335926
0.00334758
0.00333212
0.00331545
0.00331292
0.00330405
0.00328943
0.00327039
0.00324997
0.00326938
0.00325982
0.00324409
0.00322381
0.00320207
0.00323859
0.00322962
0.00321499
0.00319642
0.00317649
0.00322235
0.00321503
0.00320359
0.00319004
0.0031758
0.00322126
0.003216
0.00320925
0.00320308
0.00319612
0.0032605
0.00323613
0.00318956
0.00312322
0.00303833
0.0029358
0.00281597
0.00267913
0.00252663
0.00236052
0.00218256
0.00199728
0.00180861
0.00162114
0.00143947
0.00126776
0.00110931
0.000966414
0.000840165
0.000730448
0.000636219
0.000557381
0.000491334
0.000436354
0.000390874
0.000353391
0.000322654
0.000297485
0.000277048
0.0002639
0.00326515
0.00322463
0.0031646
0.00308704
0.00299271
0.00288221
0.00275628
0.00261604
0.00246331
0.00230017
0.00212801
0.00195149
0.00177359
0.00159803
0.00142841
0.00126794
0.00111917
0.000983872
0.00086303
0.000756923
0.000665363
0.000586323
0.000519589
0.000463498
0.000416618
0.000377723
0.000345657
0.000319219
0.000297099
0.000279848
0.0032542
0.00320037
0.00312973
0.00304419
0.0029436
0.00282849
0.0026997
0.00255855
0.00240715
0.00224718
0.00208071
0.00191189
0.00174316
0.00157758
0.00141802
0.00126693
0.0011263
0.000997509
0.000881385
0.000778176
0.000687665
0.000609264
0.000542101
0.000485043
0.000436932
0.000396655
0.000363145
0.000335286
0.000312186
0.000294438
0.00323547
0.0031729
0.00309479
0.00300367
0.00289937
0.00278206
0.00265249
0.00251213
0.002363
0.0022063
0.00204502
0.00188239
0.00172061
0.00156238
0.0014101
0.00126582
0.00113117
0.00100732
0.000894982
0.000794413
0.000705479
0.000627821
0.000560699
0.000503203
0.000454339
0.000413064
0.000378265
0.000348893
0.000324477
0.00030739
0.00321424
0.0031456
0.00306191
0.00296652
0.00285979
0.00274153
0.00261239
0.00247372
0.00232733
0.00217409
0.00201748
0.0018599
0.00170354
0.00155082
0.00140391
0.00126467
0.00113456
0.00101463
0.000905533
0.000807499
0.000720416
0.000643908
0.00057735
0.000519938
0.000470759
0.000428815
0.000392991
0.000362159
0.00033654
0.000320049
0.00319385
0.00312064
0.00303279
0.00293415
0.00282563
0.00270717
0.00257906
0.0024425
0.00229889
0.00214907
0.00199646
0.00184295
0.00169072
0.00154205
0.00139904
0.00126346
0.00113675
0.00101992
0.000913573
0.000817893
0.000732728
0.000657648
0.000592021
0.000535059
0.000485875
0.000443526
0.000406886
0.000374883
0.00034828
0.00033244
0.00317634
0.00309962
0.00300851
0.00290748
0.0027977
0.00267937
0.00255256
0.00241819
0.00227709
0.00213041
0.00198107
0.00183072
0.0016815
0.00153567
0.00139532
0.00126227
0.001138
0.00102353
0.000919433
0.000825854
0.000742552
0.000669009
0.000604511
0.000548224
0.00049926
0.000456715
0.0004195
0.000386614
0.000359251
0.00034413
0.00316341
0.00308393
0.00299021
0.00288727
0.00277674
0.00265858
0.00253309
0.00240071
0.0022617
0.00211769
0.00197084
0.00182271
0.00167548
0.00153141
0.00139265
0.00126115
0.00113846
0.00102567
0.000923348
0.000831567
0.000749992
0.000677981
0.000614704
0.000559245
0.0005107
0.000468113
0.000430539
0.00039707
0.000369147
0.000354709
0.00315658
0.00307486
0.00297884
0.00287422
0.00276312
0.00264519
0.00252083
0.00239004
0.00225269
0.00211067
0.00196544
0.00181863
0.0016724
0.00152908
0.00139096
0.00126012
0.00113825
0.00102651
0.000925468
0.000835149
0.000755104
0.000684552
0.000622526
0.000568006
0.000520049
0.000477656
0.000439954
0.00040607
0.000377734
0.000363851
0.00315736
0.00307368
0.00297541
0.0028691
0.00275737
0.0026397
0.00251607
0.00238625
0.00225007
0.00210923
0.00196474
0.0018183
0.0016721
0.00152858
0.00139019
0.00125919
0.00113742
0.00102612
0.000925876
0.000836657
0.000757904
0.000688694
0.000627912
0.000574425
0.000527173
0.000485207
0.000447576
0.000413423
0.000384778
0.000371272
0.00316728
0.00308168
0.00298099
0.00287271
0.00276006
0.00264239
0.00251911
0.00238961
0.00225399
0.00211341
0.00196874
0.00182169
0.00167454
0.00152986
0.00139031
0.00125836
0.00113599
0.00102453
0.000924602
0.000836107
0.000758385
0.000690372
0.000630803
0.000578409
0.000532021
0.000490653
0.000453234
0.000418935
0.000390063
0.000376735
0.00318803
0.00310029
0.00299677
0.00288602
0.00277199
0.0026539
0.00253037
0.00240052
0.00226468
0.0021234
0.00197754
0.00182885
0.00167972
0.00153291
0.00139132
0.00125762
0.00113396
0.00102175
0.00092164
0.000833485
0.000756521
0.000689548
0.00063115
0.000579905
0.000534491
0.000493867
0.000456753
0.000422415
0.000393405
0.00038006
0.00322155
0.00313121
0.00302428
0.00291038
0.00279442
0.00267502
0.00255045
0.00241956
0.00228254
0.00213951
0.00199137
0.00183994
0.00168775
0.00153779
0.00139324
0.00125697
0.0011313
0.00101774
0.000916951
0.000828753
0.000752275
0.000686181
0.0006289
0.000578827
0.000534456
0.0004946
0.000457943
0.000423697
0.000394664
0.000381136
0.00327022
0.00317648
0.00306534
0.00294736
0.00282852
0.00270691
0.00258035
0.0024475
0.00230817
0.00216221
0.00201057
0.00185518
0.00169876
0.00154458
0.00139609
0.0012564
0.00112797
0.00101244
0.000910473
0.000821856
0.000745603
0.000680235
0.000623999
0.00057508
0.000531818
0.000492796
0.000456689
0.000422687
0.000393782
0.000379942
0.00333684
0.00323869
0.00312229
0.00299902
0.0028762
0.0027512
0.00262138
0.00248542
0.00234241
0.00219215
0.00203562
0.00187489
0.00171295
0.00155339
0.00139992
0.0012559
0.00112394
0.00100578
0.000902131
0.000812719
0.000736444
0.00067165
0.000616377
0.000568603
0.000526461
0.000488351
0.000452934
0.000419375
0.000390807
0.000376601
0.003425
0.00332119
0.00319829
0.00306829
0.00294
0.00281004
0.00267553
0.00253483
0.00238644
0.00223018
0.0020671
0.00189947
0.00173059
0.00156436
0.0014048
0.00125546
0.00111915
0.000997709
0.000891851
0.000801259
0.000724704
0.000660317
0.000605917
0.000559283
0.000518301
0.000481227
0.000446709
0.000413872
0.000385944
0.000371446
0.00353938
0.00342842
0.00329758
0.00315903
0.00302341
0.0028865
0.00274541
0.00259772
0.00244177
0.00227739
0.00210576
0.0019294
0.00175196
0.00157765
0.00141075
0.00125505
0.00111355
0.000988146
0.000879566
0.0007874
0.000710272
0.000646109
0.00059249
0.000546979
0.000507295
0.000471481
0.000438183
0.00040649
0.000379659
0.000365138
0.00368631
0.00356644
0.00342587
0.00327631
0.00313091
0.00298457
0.00283414
0.0026766
0.0025103
0.00233514
0.00215252
0.00196529
0.00177741
0.00159342
0.00141782
0.00125465
0.00110706
0.000977011
0.000865188
0.000771051
0.000693056
0.000628933
0.000576041
0.000531713
0.000493507
0.000459339
0.000427773
0.000397876
0.000372861
0.000358872
0.00387447
0.0037433
0.00359066
0.00342684
0.00326838
0.00310924
0.00294567
0.00277458
0.00259438
0.00240511
0.00220852
0.00200782
0.00180731
0.00161178
0.00142601
0.00125421
0.00109962
0.000964228
0.000848617
0.00075211
0.000672987
0.000608785
0.000556654
0.000513696
0.000477319
0.00044537
0.000416365
0.000389303
0.000367202
0.000354709
0.00411587
0.00397001
0.003802
0.00361942
0.0034434
0.00326657
0.003085
0.00289553
0.00269685
0.00248932
0.00227508
0.00205777
0.00184201
0.00163287
0.00143532
0.00125368
0.00109119
0.000949736
0.000829794
0.00073054
0.000650092
0.000585818
0.000534672
0.000493552
0.000459705
0.000430905
0.000405738
0.000383172
0.00036568
0.000356212
0.00442728
0.00426196
0.00407381
0.0038661
0.00366586
0.00346469
0.00325846
0.00304427
0.0028212
0.0025901
0.00235365
0.00211593
0.00188189
0.00165682
0.00144576
0.00125301
0.00108168
0.000933481
0.000808715
0.000706414
0.000624576
0.000560443
0.000510819
0.000472439
0.000442388
0.000418416
0.000399164
0.000383817
0.000373615
0.000369658
0.00483226
0.00464015
0.00442519
0.00418312
0.00394929
0.0037144
0.00347439
0.00322691
0.00297165
0.00271021
0.00244589
0.00218321
0.00192739
0.00168378
0.00145733
0.00125213
0.00107102
0.000915428
0.000785451
0.000679971
0.000596913
0.000533479
0.000486425
0.000452406
0.000428406
0.000412187
0.000402491
0.000398831
0.000400247
0.000406051
0.00536265
0.0051333
0.00488231
0.00459248
0.00431179
0.00403004
0.00374341
0.00345094
0.00315326
0.00285288
0.00255373
0.00226068
0.00197901
0.00171391
0.00147
0.00125092
0.00105909
0.000895576
0.000760187
0.000651681
0.000567979
0.000506378
0.000463777
0.000436938
0.000422891
0.000419465
0.000425505
0.000441055
0.000460879
0.000483553
0.00605855
0.00577873
0.00547887
0.00512303
0.00477691
0.00442954
0.0040787
0.00372554
0.00337212
0.00302191
0.00267939
0.00234949
0.00203723
0.00174728
0.00148361
0.00124918
0.00104576
0.00087394
0.000733242
0.000622322
0.000539213
0.000481527
0.000446619
0.000431731
0.000434257
0.000452144
0.000484267
0.000530963
0.000579208
0.000628998
0.00696665
0.00661992
0.00625612
0.0058107
0.00537376
0.00493454
0.00449578
0.00406137
0.00363516
0.00322158
0.00282527
0.00245079
0.00210239
0.00178378
0.00149784
0.00124649
0.00103067
0.000850394
0.000704899
0.000592858
0.000512628
0.000462469
0.000440675
0.000445553
0.000475387
0.000528397
0.000602722
0.000697964
0.000787925
0.000877162
0.00813498
0.00770135
0.00725471
0.00668967
0.00612812
0.00556467
0.00500865
0.00446805
0.00394877
0.00345588
0.00299365
0.00256564
0.00217475
0.0018231
0.00151198
0.00124193
0.00101282
0.000824047
0.000674677
0.000563667
0.000490092
0.000453381
0.000453408
0.000490275
0.000563733
0.000672207
0.000811882
0.000978708
0.00112633
0.0012692
0.00958922
0.009043
0.00848514
0.00776676
0.00704615
0.00632699
0.00562564
0.00495485
0.0043224
0.0037336
0.00319198
0.00269973
0.00225795
0.00186683
0.00152578
0.00123376
0.000989511
0.000791884
0.000640031
0.000533594
0.000472899
0.000459105
0.000494153
0.000580263
0.000718729
0.000907714
0.00114011
0.00140508
0.00163315
0.00184714
0.0114298
0.0106956
0.00995661
0.00905823
0.00816192
0.00727321
0.00641138
0.00559188
0.00482461
0.00411648
0.00347179
0.00289263
0.0023793
0.00193077
0.00154515
0.00122027
0.000954183
0.00074556
0.000593972
0.000499978
0.000465073
0.00049151
0.000581855
0.000738157
0.00096073
0.00124628
0.00158598
0.00196777
0.00232409
0.00266548
0.0142887
0.0133413
0.0123844
0.0112757
0.010158
0.00903008
0.00791805
0.00684722
0.00583738
0.00490401
0.00405732
0.00330266
0.00264148
0.00207258
0.00159347
0.00120146
0.00089468
0.000672498
0.000535845
0.000486847
0.000527838
0.000660116
0.000883066
0.00119209
0.00157787
0.00202516
0.00251455
0.00303383
0.00348815
0.00393783
0.0232077
0.0215087
0.0195795
0.0176181
0.0156621
0.0137113
0.0118094
0.00999813
0.00831182
0.00677719
0.00541137
0.00422186
0.00320883
0.00236803
0.00169387
0.001182
0.000831201
0.000644289
0.000627425
0.000788587
0.0011353
0.0016715
0.00239371
0.0032895
0.00433662
0.00550319
0.00674947
0.00806511
0.00941397
0.0106311
0.00326952
0.00325223
0.00323757
0.00322351
0.00321086
0.00320057
0.0031938
0.00319184
0.003196
0.00320773
0.00322856
0.00326024
0.00330483
0.00336481
0.0034432
0.0035438
0.00367156
0.00383321
0.00403813
0.00429953
0.00463613
0.00507437
0.00564991
0.00640666
0.00739479
0.00866886
0.0102875
0.0124265
0.0156676
0.0251062
0.00325054
0.00323783
0.00322705
0.0032181
0.00321239
0.00321054
0.00321333
0.0032217
0.00323678
0.0032599
0.00329266
0.00333692
0.00339497
0.00346956
0.0035641
0.00368291
0.00383165
0.00401794
0.00425232
0.0045494
0.00492971
0.00542184
0.0060639
0.00690229
0.00798944
0.00938876
0.0112025
0.0136419
0.0171649
0.0271466
0.00325167
0.00324852
0.00324679
0.00324663
0.00324959
0.00325653
0.00326847
0.00328652
0.00331194
0.00334615
0.00339083
0.00344799
0.00352004
0.00360996
0.00372146
0.00385931
0.00402982
0.00424146
0.0045058
0.00483877
0.0052625
0.00580754
0.00651415
0.0074305
0.00861026
0.0101253
0.0121172
0.0148308
0.0185524
0.02941
0.00327883
0.00328537
0.00329316
0.0033024
0.00331481
0.00333145
0.00335347
0.0033821
0.00341872
0.00346488
0.00352241
0.00359346
0.00368063
0.00378711
0.00391694
0.00407528
0.00426896
0.00450712
0.00480203
0.00517039
0.00563511
0.00622741
0.00698777
0.00796305
0.00920426
0.0107904
0.0129159
0.0159101
0.0197692
0.0318411
0.00332844
0.00334378
0.00336075
0.00337934
0.00340141
0.00342819
0.00346098
0.00350107
0.00354995
0.00360928
0.003681
0.00376744
0.00387139
0.00399629
0.00414645
0.00432745
0.00454664
0.00481366
0.0051413
0.00554667
0.0060529
0.00669102
0.00750037
0.00852445
0.00980919
0.0114398
0.0136751
0.0169769
0.0208718
0.0344126
0.00339534
0.00341845
0.00344395
0.00347166
0.00350338
0.0035405
0.0035844
0.0036365
0.00369836
0.00377173
0.0038587
0.00396169
0.00408369
0.00422835
0.00440026
0.00460534
0.00485131
0.00514822
0.0055091
0.00595109
0.00649694
0.00717667
0.00802725
0.00908716
0.0103954
0.0120435
0.0143701
0.0180439
0.021867
0.0372205
0.00347378
0.00350366
0.00353692
0.00357332
0.00361453
0.00366195
0.00371705
0.00378134
0.00385647
0.0039443
0.004047
0.00416713
0.00430778
0.0044728
0.00466699
0.00489657
0.00516949
0.00549598
0.00588909
0.00636565
0.00694758
0.0076633
0.00854659
0.00962954
0.0109427
0.0125833
0.0149851
0.0191334
0.0227823
0.0403999
0.00355782
0.00359353
0.00363372
0.00367821
0.00372847
0.00378589
0.00385196
0.00392826
0.0040165
0.00411864
0.00423694
0.00437404
0.00453314
0.00471821
0.00493424
0.00518761
0.00548638
0.0058408
0.00626373
0.00677147
0.00738493
0.00813061
0.00903875
0.0101339
0.0114366
0.0130483
0.0155075
0.0202667
0.0236556
0.0440955
0.00364158
0.00368228
0.00372857
0.00378039
0.00383905
0.00390587
0.00398234
0.00407005
0.00417077
0.00428652
0.00441961
0.00457278
0.00474928
0.00495319
0.0051896
0.00546496
0.00578734
0.00616685
0.00661608
0.00715074
0.00779067
0.00856061
0.0094872
0.0105867
0.0118674
0.0134335
0.0159281
0.0214586
0.0245327
0.0484239
0.00371976
0.00376469
0.00381623
0.00387451
0.00394069
0.00401603
0.00410196
0.00420008
0.00431217
0.00444029
0.00458677
0.00475442
0.00494656
0.00516729
0.00542177
0.00571641
0.00605922
0.00646014
0.00693145
0.00748831
0.00814963
0.00893873
0.0098791
0.010978
0.0122298
0.0137395
0.0162437
0.0227118
0.0254612
0.053417
0.00378801
0.00383642
0.00389234
0.00395611
0.00402875
0.00411146
0.00420561
0.00431276
0.00443469
0.00457347
0.00473146
0.00491147
0.00511689
0.00535184
0.00562144
0.00593204
0.00629156
0.00670977
0.00719865
0.0077729
0.00845076
0.00925462
0.0102056
0.0113017
0.0125214
0.0139713
0.0164585
0.0240103
0.0264749
0.0589533
0.00384314
0.00389428
0.0039537
0.00402191
0.00409981
0.00418852
0.00428937
0.00440387
0.00453379
0.00468118
0.00484843
0.00503836
0.00525436
0.00550054
0.00578197
0.00610494
0.00647726
0.00690857
0.0074106
0.00799765
0.00868757
0.00950237
0.0104615
0.0115546
0.0127428
0.0141359
0.016584
0.0253101
0.0275732
0.0646906
0.0038832
0.00393637
0.00399839
0.00406991
0.00415175
0.00424497
0.00435082
0.0044708
0.00460665
0.00476043
0.00493452
0.00513175
0.00535547
0.00560977
0.00589969
0.00623146
0.00661281
0.00705325
0.00756432
0.00816005
0.00885805
0.00968037
0.0106458
0.0117363
0.0128963
0.0142411
0.0166379
0.0265373
0.0287027
0.0700839
0.00390751
0.00396199
0.00402572
0.00409942
0.00418384
0.00427999
0.00438908
0.0045126
0.00465229
0.0048102
0.00498869
0.00519058
0.0054192
0.00567861
0.00597383
0.00631107
0.00669799
0.00714402
0.00766053
0.00826139
0.0089641
0.00979097
0.0107607
0.0118496
0.0129873
0.0142961
0.0166402
0.0275679
0.0297301
0.0744583
0.00391649
0.00397161
0.00403616
0.00411091
0.00419657
0.00429411
0.00440474
0.00452993
0.00467143
0.00483129
0.00501185
0.0052159
0.00544677
0.00570852
0.00600618
0.00634593
0.00673544
0.00718406
0.00770309
0.0083063
0.00901119
0.00984028
0.0108125
0.0119011
0.0130266
0.0143163
0.0166204
0.0281603
0.0303785
0.0769505
0.00391136
0.0039665
0.00403108
0.00410584
0.0041915
0.00428901
0.0043996
0.00452474
0.00466619
0.00482597
0.00500643
0.00521035
0.00544107
0.00570269
0.00600024
0.00633995
0.00672947
0.00717816
0.00769733
0.00830074
0.00900594
0.00983548
0.0108083
0.0118974
0.0130234
0.0143137
0.0166146
0.0281495
0.0303708
0.0770459
0.00389209
0.00394665
0.00401046
0.00408422
0.00416865
0.00426475
0.00437376
0.00449716
0.00463669
0.00479438
0.00497259
0.00517411
0.00540233
0.00566136
0.00595629
0.00629339
0.00668037
0.00712664
0.00764358
0.00824509
0.00894876
0.00977699
0.0107485
0.0118389
0.0129779
0.0142884
0.016624
0.0275393
0.0297099
0.0747319
0.00385759
0.00391089
0.00397308
0.00404476
0.0041267
0.00421992
0.0043257
0.00444554
0.00458117
0.00473464
0.0049083
0.00510498
0.00532811
0.00558185
0.00587135
0.00620294
0.00658441
0.0070253
0.00753714
0.00813402
0.00883367
0.00965824
0.0106264
0.0117194
0.0128817
0.0142291
0.0166147
0.0265005
0.0286773
0.0705007
0.00380767
0.00385903
0.00391871
0.00398721
0.00406535
0.0041542
0.00425507
0.00436948
0.00449918
0.00464621
0.00481294
0.00500224
0.00521753
0.00546304
0.00574398
0.00606676
0.0064393
0.00687126
0.00737443
0.00796316
0.0086554
0.00947318
0.0104358
0.011532
0.0127237
0.0141208
0.0165589
0.0252764
0.0275504
0.0652105
0.00374325
0.00379195
0.00384826
0.00391248
0.00398553
0.00406855
0.00416288
0.00427006
0.00439185
0.00453029
0.00468776
0.00486711
0.00507179
0.00530605
0.00557514
0.00588558
0.0062454
0.00666446
0.00715482
0.0077312
0.0084119
0.00921925
0.0101739
0.0112739
0.0124985
0.0139546
0.0164371
0.0239895
0.0264611
0.0595409
0.00366647
0.0037118
0.00376386
0.00382277
0.00388955
0.0039654
0.00405172
0.00415004
0.00426214
0.00439003
0.00453608
0.0047031
0.00489453
0.00511461
0.00536864
0.00566318
0.00600637
0.00640829
0.00688129
0.00744058
0.00810503
0.00889776
0.00984197
0.0109452
0.0122037
0.013723
0.0162317
0.0227109
0.0254616
0.0540415
0.00358067
0.00362194
0.00366892
0.00372156
0.00378102
0.00384857
0.00392564
0.00401378
0.00411472
0.00423043
0.00436324
0.00451592
0.00469183
0.00489517
0.0051312
0.00540652
0.00572935
0.00610992
0.00656091
0.00709806
0.00774107
0.00851445
0.00944472
0.0105491
0.011839
0.0134193
0.01593
0.021481
0.0245515
0.0490615
0.00349031
0.00352681
0.00356792
0.00361344
0.00366473
0.00372311
0.00379002
0.00386699
0.00395571
0.00405808
0.00417634
0.00431316
0.00447183
0.00465643
0.00487214
0.00512548
0.00542471
0.00578015
0.00620474
0.00671476
0.00733095
0.0080796
0.00899115
0.010092
0.0114067
0.0130386
0.015526
0.0203129
0.0236965
0.0447307
0.00340071
0.00343166
0.00346611
0.00350381
0.00354629
0.0035949
0.00365109
0.00371632
0.00379221
0.00388058
0.00398354
0.00410365
0.00424405
0.00440869
0.00460254
0.00483204
0.00510533
0.0054327
0.00582722
0.00630565
0.00688973
0.0076078
0.00849427
0.00958392
0.0109125
0.01258
0.0150211
0.0192019
0.0228492
0.0410255
0.0033177
0.00334223
0.00336923
0.00339851
0.00343175
0.00347029
0.00351551
0.0035688
0.00363169
0.00370588
0.00379339
0.00389661
0.00401851
0.00416282
0.00433434
0.00453923
0.00478539
0.00508296
0.00544493
0.00588828
0.00643565
0.00711714
0.00797087
0.00903882
0.0103661
0.012048
0.014423
0.0181324
0.0219639
0.037837
0.00324722
0.00326433
0.0032831
0.0033035
0.00332726
0.00335564
0.0033899
0.00343135
0.00348143
0.00354176
0.00361421
0.00370102
0.00380494
0.00392949
0.0040792
0.00425987
0.00447908
0.00474655
0.00507495
0.00548124
0.00598848
0.00662807
0.0074409
0.00847469
0.0097821
0.0114527
0.0137432
0.0170836
0.0210032
0.0350263
0.00319495
0.00320358
0.00321343
0.00322461
0.00323878
0.00325703
0.00328052
0.00331049
0.00334829
0.00339543
0.00345367
0.00352507
0.0036122
0.00371831
0.00384761
0.00400555
0.00419917
0.00443767
0.00473316
0.0051022
0.00556779
0.00616175
0.00692651
0.00791353
0.00918083
0.0108119
0.0129972
0.0160342
0.0199396
0.0324627
0.00316598
0.00316524
0.00316572
0.00316748
0.00317205
0.00318036
0.0031935
0.0032126
0.00323889
0.00327378
0.0033189
0.0033762
0.00344809
0.00353758
0.00364857
0.00378606
0.00395655
0.00416857
0.00443355
0.00476736
0.00519241
0.00574008
0.00645283
0.00738352
0.00859245
0.0101558
0.0122101
0.0149724
0.0187656
0.0300511
0.0031639
0.00315385
0.00314523
0.00313791
0.00313338
0.00313237
0.00313577
0.00314455
0.00315987
0.00318307
0.00321574
0.00325976
0.00331743
0.00339157
0.00348572
0.00360438
0.00375333
0.00394028
0.00417572
0.00447436
0.00485715
0.00535363
0.00600409
0.00685939
0.00797747
0.0094254
0.0113013
0.0137954
0.0174118
0.0278042
0.00318361
0.00316868
0.00315542
0.00314221
0.00312997
0.00311974
0.00311274
0.00311029
0.00311381
0.00312478
0.0031448
0.00317568
0.00321957
0.00327903
0.00335719
0.00345791
0.0035862
0.00374888
0.00395553
0.0042196
0.00456019
0.00500469
0.00559074
0.00636633
0.00738559
0.00870633
0.0103854
0.0125853
0.0159359
0.0257759
0.0238698
0.0221413
0.0201554
0.0181215
0.0160902
0.014068
0.0121011
0.0102332
0.0084992
0.00692583
0.00552974
0.00431762
0.00328867
0.00243774
0.00175843
0.00124577
0.000898079
0.000717966
0.000711426
0.000886243
0.00124964
0.00180492
0.00254751
0.00346332
0.0045279
0.00570689
0.00695833
0.00827068
0.00960675
0.0108092
0.0145691
0.013629
0.0126607
0.0115213
0.0103675
0.00920441
0.00806089
0.00696372
0.00593302
0.00498385
0.00412572
0.00336316
0.00269685
0.00212497
0.00164448
0.00125227
0.000946096
0.000724892
0.000589239
0.000540961
0.000582113
0.000713762
0.000935098
0.00124134
0.001623
0.00206453
0.00254666
0.00305793
0.00349922
0.0039425
0.0115961
0.0108741
0.0101367
0.0092261
0.00831077
0.0074014
0.0065198
0.00568304
0.00490173
0.00418281
0.00353022
0.00294555
0.00242856
0.00197771
0.00159066
0.00126482
0.00099776
0.000787648
0.000633494
0.00053531
0.000494149
0.00051203
0.000591566
0.000735159
0.000943765
0.00121493
0.00154107
0.00191174
0.00225776
0.00259625
0.00968792
0.00914863
0.00859175
0.00786594
0.00713501
0.00640549
0.00569475
0.00501609
0.0043774
0.00378392
0.00323896
0.00274448
0.00230133
0.00190944
0.00156799
0.00127564
0.00103079
0.000831805
0.000677311
0.000566445
0.000499223
0.000476855
0.000501784
0.00057708
0.000704979
0.000884404
0.0011087
0.00136739
0.00159221
0.00180631
0.00817299
0.00774212
0.00729444
0.00672561
0.00616126
0.00559679
0.00504096
0.00450119
0.0039829
0.00349094
0.00302951
0.0026022
0.00221192
0.00186082
0.00155015
0.00128029
0.00105087
0.0008609
0.000709008
0.00059378
0.000514156
0.000469838
0.000461443
0.000490129
0.000556666
0.000660083
0.000796507
0.00096123
0.00110845
0.0012512
0.00695911
0.00661334
0.00624824
0.00580218
0.00536736
0.00493321
0.00450083
0.00407299
0.00365272
0.00324404
0.0028515
0.0024798
0.00213343
0.00181625
0.00153122
0.00128024
0.00106405
0.000882401
0.000734256
0.000618114
0.000532393
0.000475752
0.000447209
0.000445953
0.000471027
0.000521049
0.000594041
0.00068894
0.000779494
0.000868888
0.0060203
0.00574156
0.00544149
0.00508753
0.00474625
0.00440657
0.00406492
0.00372122
0.0033765
0.00303365
0.00269691
0.00237133
0.00206217
0.00177435
0.00151197
0.001278
0.00107411
0.000900747
0.000757335
0.000642561
0.000554685
0.000491762
0.000451728
0.000432402
0.000431602
0.000447466
0.000478811
0.000525699
0.000575157
0.000626218
0.005305
0.00507756
0.00482772
0.00454128
0.00426648
0.00399322
0.00371658
0.00343459
0.00314688
0.00285521
0.00256317
0.00227559
0.00199794
0.00173562
0.00149343
0.00127502
0.00108278
0.000917746
0.000779783
0.000667842
0.000580181
0.000514526
0.000468202
0.000438292
0.000421984
0.000417128
0.000422524
0.000438164
0.000459107
0.000483354
0.00476289
0.00457302
0.0043601
0.00412207
0.00389441
0.00366797
0.00343789
0.00320101
0.00295615
0.00270414
0.00244779
0.00219146
0.00194045
0.00170029
0.00147608
0.00127192
0.00109065
0.000933772
0.000801543
0.000693153
0.000606921
0.000540446
0.000490795
0.000454775
0.000429359
0.000412197
0.000401942
0.000398085
0.000400023
0.000406851
0.00435026
0.0041871
0.00400138
0.00379818
0.00360397
0.00341089
0.00321421
0.0030104
0.00279777
0.00257644
0.00234853
0.00211784
0.00188931
0.00166834
0.00146009
0.00126886
0.00109779
0.000948697
0.000822126
0.000717478
0.000633175
0.000566834
0.000515493
0.000475938
0.000445144
0.000420662
0.000400964
0.000385145
0.0003748
0.000371077
0.00403361
0.00388957
0.00372407
0.00354591
0.00337581
0.00320669
0.00303423
0.00285479
0.00266642
0.00246879
0.00226347
0.00205372
0.00184408
0.00163966
0.00144549
0.00126591
0.00110417
0.000962301
0.000841059
0.000740023
0.000657743
0.000591947
0.000539773
0.000498118
0.000464056
0.000435098
0.000409584
0.000386367
0.000368213
0.000358306
0.0037884
0.00365858
0.00350836
0.00334879
0.00319613
0.00304428
0.00288942
0.00272797
0.00255783
0.00237842
0.00219093
0.00199821
0.00180435
0.00161411
0.00143227
0.00126304
0.00110971
0.0009744
0.000858009
0.000760272
0.000679891
0.000614742
0.00056214
0.000519149
0.000482966
0.00045114
0.000421868
0.000394059
0.000370948
0.000357535
0.00359749
0.00347834
0.00333997
0.00319445
0.0030546
0.00291543
0.00277335
0.00262509
0.00246852
0.002303
0.00212949
0.00195052
0.00176976
0.00159156
0.00142038
0.00126025
0.00111436
0.000984881
0.00087279
0.000777953
0.000699225
0.000634658
0.000581756
0.000537783
0.000500066
0.000466199
0.00043447
0.000403811
0.000377614
0.000362418
0.00344873
0.00333779
0.00320887
0.00307419
0.00294395
0.00281396
0.00268101
0.00254221
0.00239556
0.00224051
0.00207789
0.00190995
0.00173997
0.0015719
0.00140982
0.00125753
0.00111813
0.000993723
0.000885354
0.000792983
0.000715608
0.000651447
0.00059819
0.000553314
0.000514305
0.000478932
0.000445578
0.000413195
0.000385181
0.000369351
0.00333328
0.00322892
0.00310772
0.00298146
0.00285836
0.00273498
0.00260832
0.00247608
0.00233654
0.00218926
0.00203506
0.0018759
0.00171469
0.00155499
0.00140056
0.00125494
0.00112106
0.00100099
0.000895759
0.000805415
0.000729066
0.000665074
0.000611325
0.000565507
0.000525307
0.00048876
0.000454304
0.000420945
0.000392004
0.000376285
0.00324471
0.00314571
0.00303086
0.00291114
0.00279325
0.00267442
0.00255191
0.002424
0.00228943
0.00214786
0.00200007
0.00184778
0.0016936
0.00154071
0.00139259
0.00125251
0.00112326
0.00100679
0.000904139
0.000815381
0.000739715
0.000675648
0.000621239
0.000574391
0.000533075
0.00049555
0.000460329
0.000426488
0.00039721
0.000382039
0.00317828
0.00308358
0.00297383
0.00285912
0.00274485
0.00262891
0.00250909
0.00238384
0.00225262
0.00211516
0.00197212
0.00182508
0.00167638
0.00152892
0.00138588
0.00125032
0.00112483
0.00101128
0.00091065
0.00082304
0.000747725
0.000683339
0.000628123
0.0005802
0.000537808
0.000499431
0.000463666
0.00042965
0.000400389
0.000385917
0.00313028
0.00303892
0.00293315
0.00282214
0.00271029
0.00259604
0.00247776
0.00235404
0.00222489
0.00209018
0.0019505
0.00180732
0.00166275
0.00151948
0.00138042
0.00124842
0.00112589
0.00101459
0.000915445
0.000828557
0.000753267
0.000688342
0.000632211
0.000583214
0.000539778
0.000500639
0.000464463
0.000430442
0.000401371
0.000387527
0.00309769
0.00300886
0.00290619
0.00279784
0.00268746
0.00257404
0.00245643
0.00233344
0.00220528
0.00207217
0.00193464
0.00179406
0.00165244
0.00151225
0.00137617
0.00124684
0.00112652
0.00101683
0.000918653
0.000832074
0.0007565
0.000690836
0.000633695
0.000583612
0.000539211
0.00049939
0.000462868
0.00042893
0.000400121
0.00038671
0.00307803
0.00299113
0.00289092
0.00278452
0.00267493
0.00256168
0.00244402
0.00232118
0.00219306
0.00206052
0.00192404
0.00178497
0.00164523
0.0015071
0.00137309
0.00124563
0.00112679
0.0010181
0.000920371
0.000833693
0.000757542
0.000690954
0.000632722
0.000581563
0.000536255
0.000495751
0.000459011
0.00042522
0.0003967
0.000383481
0.00306926
0.00298396
0.00288576
0.00278088
0.00267172
0.00255818
0.00243992
0.00231655
0.00218773
0.00205479
0.00191838
0.00177981
0.00164094
0.00150395
0.00137115
0.00124477
0.00112674
0.00101845
0.000920661
0.00083348
0.000756464
0.000688779
0.00062938
0.000577149
0.000531015
0.000489963
0.000453062
0.000419468
0.000391252
0.000377963
0.00306959
0.00298592
0.00288955
0.00278596
0.00267709
0.00256294
0.00244362
0.00231908
0.00218892
0.00205469
0.00191743
0.00177841
0.0016395
0.00150275
0.00137032
0.00124428
0.00112637
0.00101789
0.000919543
0.000831466
0.000753301
0.000684351
0.000623723
0.000570443
0.000523581
0.000482108
0.000445154
0.00041185
0.000383973
0.000370371
0.00307743
0.00299567
0.0029012
0.0027989
0.00269034
0.00257557
0.00245476
0.00232841
0.00219641
0.00206004
0.00192108
0.00178074
0.00164088
0.00150349
0.00137061
0.00124412
0.00112566
0.00101639
0.000916998
0.000827641
0.00074806
0.000677693
0.000615793
0.000561516
0.000513987
0.000472284
0.000435464
0.000402551
0.000375094
0.000360965
0.00309117
0.00301192
0.00291973
0.00281897
0.00271086
0.00259548
0.00247302
0.00234436
0.00221003
0.00207084
0.00192937
0.00178687
0.00164516
0.00150624
0.00137202
0.00124429
0.00112454
0.00101388