/*--------------------------------*- C++ -*----------------------------------*\
  =========                 |
  \\      /  F ield         | OpenFOAM: The Open Source CFD Toolbox
   \\    /   O peration     | Website:  https://openfoam.org
    \\  /    A nd           | Version:  12
     \\/     M anipulation  |
\*---------------------------------------------------------------------------*/
FoamFile
{
    format      ascii;
    class       volVectorField;
    location    "400";
    object      U;
}
// * * * * * * * * * * * * * * * * * * * * * * * * * * * * * * * * * * * * * //

dimensions      [0 1 -1 0 0 0 0];

internalField   nonuniform List<vector> 
6750
(
(0.200065 -0.00312056 0)
(0.200334 -0.00958855 0)
(0.200601 -0.0155815 0)
(0.200832 -0.0211568 0)
(0.200689 -0.0263971 0)
(0.200037 -0.00347816 0)
(0.200271 -0.0101448 0)
(0.200458 -0.0160524 0)
(0.200516 -0.0213267 0)
(0.200374 -0.0260403 0)
(0.200026 -0.00363728 0)
(0.200122 -0.0103568 0)
(0.200123 -0.0161212 0)
(0.19998 -0.021092 0)
(0.19971 -0.0253523 0)
(0.20001 -0.00366802 0)
(0.199953 -0.0102922 0)
(0.199761 -0.0158485 0)
(0.199437 -0.020537 0)
(0.199037 -0.0244792 0)
(0.199996 -0.00359778 0)
(0.199798 -0.00999863 0)
(0.199422 -0.0152922 0)
(0.198921 -0.0197075 0)
(0.198376 -0.0233926 0)
(0.199984 -0.00344427 0)
(0.199656 -0.00951125 0)
(0.199104 -0.0144866 0)
(0.198422 -0.0186127 0)
(0.197713 -0.0220484 0)
(0.199974 -0.00322198 0)
(0.199524 -0.00885759 0)
(0.198799 -0.0134565 0)
(0.197931 -0.0172613 0)
(0.197044 -0.0204299 0)
(0.199965 -0.00294196 0)
(0.199398 -0.00806044 0)
(0.198505 -0.0122255 0)
(0.197451 -0.0156694 0)
(0.196378 -0.0185413 0)
(0.199956 -0.0026138 0)
(0.199281 -0.00714222 0)
(0.198228 -0.0108212 0)
(0.196995 -0.0138646 0)
(0.195739 -0.0164072 0)
(0.199949 -0.00224723 0)
(0.199175 -0.00612749 0)
(0.197976 -0.00927741 0)
(0.196579 -0.0118853 0)
(0.195152 -0.0140685 0)
(0.199943 -0.00185256 0)
(0.199084 -0.00504295 0)
(0.197758 -0.00763237 0)
(0.196219 -0.00977822 0)
(0.194641 -0.0115779 0)
(0.199938 -0.00144043 0)
(0.199011 -0.00391622 0)
(0.197583 -0.00592656 0)
(0.195927 -0.00759375 0)
(0.194226 -0.0089939 0)
(0.199935 -0.00102114 0)
(0.198957 -0.00277417 0)
(0.197453 -0.00419969 0)
(0.195712 -0.00538181 0)
(0.193918 -0.00637541 0)
(0.199931 -0.000603901 0)
(0.198926 -0.0016415 0)
(0.197371 -0.00248777 0)
(0.195574 -0.003188 0)
(0.19372 -0.00377671 0)
(0.199921 -0.000200437 0)
(0.198921 -0.000537738 0)
(0.197334 -0.000819415 0)
(0.19551 -0.00105035 0)
(0.193626 -0.0012443 0)
(0.199921 0.000200405 0)
(0.198921 0.000537628 0)
(0.197334 0.000819226 0)
(0.19551 0.00105008 0)
(0.193626 0.00124397 0)
(0.199931 0.000603869 0)
(0.198926 0.00164139 0)
(0.197371 0.00248758 0)
(0.195574 0.00318774 0)
(0.19372 0.00377638 0)
(0.199935 0.00102111 0)
(0.198957 0.00277406 0)
(0.197453 0.0041995 0)
(0.195712 0.00538155 0)
(0.193918 0.00637508 0)
(0.199938 0.0014404 0)
(0.199011 0.00391611 0)
(0.197583 0.00592637 0)
(0.195927 0.00759348 0)
(0.194226 0.00899357 0)
(0.199943 0.00185253 0)
(0.199084 0.00504284 0)
(0.197758 0.00763218 0)
(0.196219 0.00977796 0)
(0.194641 0.0115775 0)
(0.199949 0.0022472 0)
(0.199175 0.00612738 0)
(0.197976 0.00927723 0)
(0.196579 0.011885 0)
(0.195152 0.0140681 0)
(0.199956 0.00261377 0)
(0.199281 0.00714211 0)
(0.198228 0.010821 0)
(0.196995 0.0138643 0)
(0.195739 0.0164068 0)
(0.199965 0.00294193 0)
(0.199398 0.00806033 0)
(0.198505 0.0122253 0)
(0.197451 0.0156692 0)
(0.196378 0.018541 0)
(0.199974 0.00322194 0)
(0.199524 0.00885748 0)
(0.198799 0.0134563 0)
(0.197931 0.0172611 0)
(0.197044 0.0204295 0)
(0.199984 0.00344423 0)
(0.199656 0.00951114 0)
(0.199104 0.0144864 0)
(0.198422 0.0186124 0)
(0.197713 0.0220481 0)
(0.199996 0.00359775 0)
(0.199798 0.00999852 0)
(0.199422 0.015292 0)
(0.198921 0.0197072 0)
(0.198376 0.0233922 0)
(0.20001 0.00366799 0)
(0.199953 0.0102921 0)
(0.199761 0.0158483 0)
(0.199437 0.0205367 0)
(0.199037 0.0244789 0)
(0.200026 0.00363724 0)
(0.200122 0.0103567 0)
(0.200123 0.016121 0)
(0.19998 0.0210917 0)
(0.19971 0.0253519 0)
(0.200037 0.00347813 0)
(0.200271 0.0101446 0)
(0.200458 0.0160522 0)
(0.200516 0.0213264 0)
(0.200374 0.0260399 0)
(0.200065 0.00312052 0)
(0.200334 0.00958842 0)
(0.200601 0.0155813 0)
(0.200832 0.0211565 0)
(0.200689 0.0263967 0)
(0.19851 -0.0381712 0)
(0.196771 -0.0437664 0)
(0.19529 -0.0488914 0)
(0.194259 -0.0534925 2.81869e-22)
(0.193531 -0.0574582 0)
(0.193048 -0.0607274 0)
(0.192799 -0.0632339 -1.92957e-20)
(0.192771 -0.0648821 1.9466e-20)
(0.192944 -0.0655549 1.58036e-22)
(0.193246 -0.0651978 1.01197e-20)
(0.19365 -0.0636827 1.92639e-23)
(0.194077 -0.0608565 -1.25416e-23)
(0.194448 -0.0567893 -5.21101e-21)
(0.194679 -0.0515504 -5.1715e-21)
(0.194696 -0.0452832 -1.2076e-20)
(0.194444 -0.0381978 1.20803e-20)
(0.193893 -0.0305538 -4.84842e-21)
(0.193043 -0.0226319 -4.50003e-21)
(0.191923 -0.0147134 3.11567e-22)
(0.190583 -0.00705408 3.53664e-22)
(0.189074 0.000135897 8.64245e-21)
(0.187472 0.00674179 -1.2736e-22)
(0.185861 0.0126399 1.47968e-20)
(0.184299 0.0177733 -1.46659e-20)
(0.182838 0.0221313 0)
(0.181518 0.0257348 0)
(0.18037 0.0286248 -1.86323e-22)
(0.179419 0.0308541 0)
(0.178685 0.0324777 0)
(0.178159 0.033521 0)
(0.197622 -0.0415326 0)
(0.196045 -0.0470378 0)
(0.194851 -0.0517298 0)
(0.194008 -0.0558201 -2.66407e-22)
(0.193399 -0.0592949 0)
(0.19301 -0.0621141 0)
(0.19284 -0.0642063 1.92122e-20)
(0.192874 -0.0654747 -1.96741e-20)
(0.19309 -0.0658103 -1.48747e-22)
(0.193415 -0.0651813 0)
(0.193825 -0.0634224 0)
(0.194232 -0.0604517 -9.56923e-21)
(0.194569 -0.0563322 9.59937e-21)
(0.194758 -0.0511352 0)
(0.194731 -0.0449971 -3.22107e-20)
(0.194442 -0.038112 3.2211e-20)
(0.193865 -0.0307141 0)
(0.193003 -0.0230589 8.71315e-21)
(0.191885 -0.015398 -8.75743e-21)
(0.190554 -0.00796213 0)
(0.189072 -0.00094173 0)
(0.1875 0.00554246 1.19482e-22)
(0.185904 0.011381 -1.42049e-20)
(0.184349 0.0165163 1.4312e-20)
(0.182883 0.0209296 0)
(0.181545 0.0246326 0)
(0.180363 0.0276576 1.75458e-22)
(0.179358 0.03005 0)
(0.178556 0.0318681 0)
(0.177965 0.0331877 0)
(0.196785 -0.0441218 0)
(0.195527 -0.0491165 0)
(0.194514 -0.0533901 0)
(0.193763 -0.0571466 1.96062e-20)
(0.193228 -0.0603392 -1.98238e-20)
(0.192911 -0.0629043 2.06966e-20)
(0.192808 -0.064759 -2.08912e-20)
(0.1929 -0.0658053 3.21898e-22)
(0.193159 -0.0659432 0)
(0.193515 -0.0651471 0)
(0.19394 -0.063231 -3.2134e-22)
(0.194342 -0.0601656 0)
(0.194657 -0.0560021 0)
(0.194808 -0.0508138 -7.60796e-23)
(0.19473 -0.0447355 -5.30245e-20)
(0.19438 -0.0379537 5.30249e-20)
(0.193738 -0.0306915 7.04098e-23)
(0.192812 -0.0231891 0)
(0.191633 -0.0156827 0)
(0.190249 -0.00838696 2.55101e-22)
(0.188719 -0.00147911 0)
(0.187107 0.00490495 0)
(0.185478 0.010679 -2.36671e-22)
(0.183891 0.0157863 -1.37934e-20)
(0.182393 0.0202058 1.36649e-20)
(0.181021 0.0239446 -1.26756e-20)
(0.1798 0.0270292 1.25177e-20)
(0.178748 0.0294979 0)
(0.177895 0.0314085 0)
(0.177319 0.0329052 0)
(0.196046 -0.0464485 0)
(0.195012 -0.0510237 -4.24476e-20)
(0.194102 -0.0549627 2.14031e-20)
(0.193421 -0.0584268 4.44832e-20)
(0.192956 -0.0613507 -4.50216e-20)
(0.192708 -0.0636628 2.23943e-20)
(0.192666 -0.0652779 0)
(0.192816 -0.0661001 7.03125e-22)
(0.193111 -0.066047 0)
(0.193508 -0.0650738 0)
(0.193948 -0.0630052 1.14007e-20)
(0.19435 -0.0598478 -1.07742e-20)
(0.194646 -0.055641 0)
(0.194757 -0.050462 7.98736e-23)
(0.194619 -0.0444434 -7.34276e-20)
(0.194194 -0.0377648 7.34281e-20)
(0.193464 -0.0306385 -7.3921e-23)
(0.192443 -0.0232908 0)
(0.191165 -0.0159436 -8.51831e-21)
(0.189684 -0.00879738 7.95765e-21)
(0.188062 -0.00201884 2.43534e-22)
(0.186367 0.00426491 0)
(0.184663 0.00996848 -4.46027e-22)
(0.183009 0.0150394 0)
(0.181452 0.0194563 1.30351e-20)
(0.180026 0.0232237 -2.48402e-20)
(0.178755 0.0263637 2.34805e-20)
(0.177651 0.0289075 1.05397e-20)
(0.176746 0.0309086 -2.17601e-20)
(0.176204 0.0325825 0)
(0.195288 -0.0486647 0)
(0.194389 -0.0528755 4.76381e-20)
(0.193562 -0.0565023 -4.68125e-20)
(0.192952 -0.0596782 0)
(0.192557 -0.0623332 0)
(0.192372 -0.0643919 7.62223e-22)
(0.192389 -0.0657676 0)
(0.192592 -0.0663657 -7.3672e-22)
(0.192925 -0.0661254 1.16322e-20)
(0.193356 -0.0649665 -1.1792e-20)
(0.193809 -0.0627497 -1.16512e-20)
(0.194209 -0.0594957 1.13493e-20)
(0.194482 -0.0552405 3.38774e-22)
(0.194546 -0.050064 -1.63549e-22)
(0.194342 -0.0440974 -9.34402e-20)
(0.19383 -0.0375146 9.34407e-20)
(0.192999 -0.0305182 1.44778e-22)
(0.191864 -0.0233222 -2.77106e-22)
(0.190466 -0.0161348 8.51488e-21)
(0.188864 -0.0091434 -8.2074e-21)
(0.187125 -0.00250381 -8.0687e-21)
(0.185319 0.00366567 7.75775e-21)
(0.183513 0.00928362 4.67434e-22)
(0.181766 0.0143011 0)
(0.180126 0.0186977 -4.03225e-22)
(0.178627 0.0224766 0)
(0.177292 0.0256566 0)
(0.176127 0.0282629 -2.23371e-20)
(0.175162 0.0303433 2.13626e-20)
(0.174648 0.0321852 0)
(0.194434 -0.0507716 4.90269e-20)
(0.19362 -0.0546342 -7.70713e-20)
(0.192868 -0.0579615 2.53936e-20)
(0.192329 -0.0608604 0)
(0.191999 -0.0632565 2.568e-20)
(0.191875 -0.0650704 -2.51481e-20)
(0.191946 -0.0662143 2.47374e-20)
(0.192199 -0.0665965 -2.56315e-20)
(0.192568 -0.0661717 0)
(0.193027 -0.0648254 -7.74934e-22)
(0.193488 -0.0624639 1.18717e-20)
(0.19388 -0.0591095 -6.17668e-21)
(0.194122 -0.054799 -9.30705e-22)
(0.194134 -0.0496151 -5.39853e-21)
(0.193855 -0.0436883 -1.1309e-19)
(0.193249 -0.037188 1.13087e-19)
(0.192308 -0.0303088 -4.82948e-21)
(0.191051 -0.0232542 7.71929e-22)
(0.189523 -0.0162205 -4.07136e-21)
(0.187788 -0.00938298 8.47475e-21)
(0.185917 -0.00288676 4.81142e-22)
(0.183984 0.00315803 0)
(0.182059 0.00867578 -1.4166e-20)
(0.180202 0.0136217 1.44463e-20)
(0.178461 0.0179773 -1.3308e-20)
(0.176873 0.0217457 1.27792e-20)
(0.175458 0.0249435 7.28556e-22)
(0.174222 0.0275912 1.1238e-20)
(0.173189 0.0297306 -3.28065e-20)
(0.172685 0.0317159 2.31562e-20)
(0.193439 -0.0527528 -2.56737e-20)
(0.192678 -0.0562813 2.89996e-20)
(0.191996 -0.0593271 2.90435e-20)
(0.191522 -0.0619645 -2.94502e-20)
(0.191254 -0.0641137 2.75296e-20)
(0.191186 -0.0656921 -2.95844e-20)
(0.19131 -0.0666124 -8.84968e-22)
(0.191607 -0.0667877 0)
(0.192008 -0.066178 1.30841e-20)
(0.192487 -0.0646453 3.7359e-22)
(0.192951 -0.062141 3.22977e-22)
(0.193327 -0.0586827 -1.29105e-20)
(0.193531 -0.05431 -5.39666e-21)
(0.193483 -0.0491087 8.53805e-21)
(0.193125 -0.0432093 -1.34855e-19)
(0.19242 -0.0367779 1.29603e-19)
(0.191365 -0.0300027 7.21983e-21)
(0.189982 -0.023078 -5.29204e-21)
(0.188321 -0.0161898 -8.51295e-21)
(0.186449 -0.00950248 -1.22049e-22)
(0.184441 -0.00315135 -1.64046e-22)
(0.182374 0.00276169 7.63172e-21)
(0.180321 0.00816738 0)
(0.178343 0.0130255 3.8572e-22)
(0.176491 0.0173205 -1.19516e-20)
(0.174801 0.0210562 1.26294e-20)
(0.173296 0.0242484 -1.17107e-20)
(0.171977 0.0269147 1.08166e-20)
(0.170866 0.0290911 1.07021e-20)
(0.170349 0.0311882 -1.21271e-20)
(0.192265 -0.0546041 0)
(0.191538 -0.057817 2.72554e-20)
(0.190918 -0.0606011 -3.3194e-20)
(0.190505 -0.0629918 3.12711e-20)
(0.190294 -0.0649047 -2.98608e-20)
(0.19028 -0.0662556 2.74138e-20)
(0.190453 -0.0669589 -2.77626e-20)
(0.190784 -0.0669357 -1.8111e-21)
(0.191217 -0.0661339 -8.86499e-22)
(0.191707 -0.0644184 -8.64662e-22)
(0.192166 -0.0617721 -8.33434e-22)
(0.192519 -0.0582058 4.01826e-22)
(0.192678 -0.0537642 -6.36268e-21)
(0.192565 -0.0485365 3.1577e-21)
(0.192122 -0.0426537 -1.47819e-19)
(0.191316 -0.0362792 1.53199e-19)
(0.190146 -0.0295959 2.24747e-21)
(0.188639 -0.0227905 -4.18782e-21)
(0.186846 -0.0160396 2.65949e-22)
(0.184838 -0.00949817 1.0277e-21)
(0.182694 -0.00329212 4.71617e-22)
(0.180493 0.00248456 4.46112e-22)
(0.17831 0.00776901 8.46874e-22)
(0.176208 0.0125259 -1.39948e-20)
(0.174238 0.016743 1.37479e-20)
(0.17244 0.0204259 -1.20349e-20)
(0.170834 0.0235905 1.11144e-20)
(0.169424 0.0262526 -9.71544e-21)
(0.168227 0.0284441 1.1629e-20)
(0.167675 0.0306199 0)
(0.190877 -0.0563268 0)
(0.19017 -0.0592439 1.97913e-21)
(0.189607 -0.0617844 -2.74344e-20)
(0.189252 -0.0639411 4.15387e-22)
(0.189094 -0.0656266 3.19304e-20)
(0.18913 -0.0667567 1.95131e-21)
(0.189349 -0.067246 1.95187e-21)
(0.189704 -0.0670314 -1.30575e-20)
(0.190164 -0.066031 1.6135e-20)
(0.190658 -0.0641383 -4.95868e-24)
(0.191107 -0.061347 -6.8356e-21)
(0.191428 -0.0576685 6.87666e-21)
(0.191535 -0.053152 -2.6978e-21)
(0.191351 -0.0478902 3.10766e-21)
(0.190821 -0.0420147 -1.68652e-19)
(0.189914 -0.0356871 1.68651e-19)
(0.188631 -0.0290855 2.41243e-21)
(0.187002 -0.02239 -2.70216e-21)
(0.185082 -0.0157689 3.95164e-21)
(0.182944 -0.00936851 -5.22509e-21)
(0.180669 -0.00330625 -2.92548e-23)
(0.178339 0.00233144 7.0542e-21)
(0.176028 0.00748801 -7.8988e-21)
(0.173803 0.0121331 -7.8539e-22)
(0.171716 0.0162579 -8.05226e-22)
(0.169806 0.0198704 1.1754e-20)
(0.168095 0.0229873 -3.29871e-22)
(0.166587 0.0256239 -1.24371e-20)
(0.165298 0.0278098 0)
(0.164691 0.0300312 0)
(0.18924 -0.0579232 0)
(0.188546 -0.0605632 -3.53344e-20)
(0.188037 -0.0628753 4.09926e-22)
(0.187735 -0.0648088 5.22129e-22)
(0.187627 -0.0662745 6.53418e-20)
(0.187709 -0.067189 -3.38933e-20)
(0.187968 -0.0674693 -2.03983e-21)
(0.188348 -0.0670625 0)
(0.188825 -0.0658611 1.44662e-20)
(0.189316 -0.0637931 -1.46703e-20)
(0.189746 -0.0608547 7.14641e-21)
(0.190029 -0.0570603 -3.9911e-22)
(0.190078 -0.0524639 -6.82524e-21)
(0.18982 -0.0471616 1.92961e-22)
(0.1892 -0.0412862 -1.85981e-19)
(0.188192 -0.0349974 1.86064e-19)
(0.186799 -0.0284693 -1.54466e-22)
(0.185054 -0.0218757 -4.51701e-21)
(0.183015 -0.0153778 2.93433e-22)
(0.180755 -0.00911374 5.18471e-21)
(0.178357 -0.00319319 -7.83132e-21)
(0.175905 0.00230448 7.24592e-21)
(0.173474 0.00732871 0)
(0.171131 0.011854 8.20867e-22)
(0.168929 0.0158751 -1.18791e-20)
(0.166908 0.0194027 2.37783e-20)
(0.165092 0.0224546 -3.06572e-22)
(0.163483 0.0250464 5.57872e-22)
(0.162099 0.0272073 -1.04064e-20)
(0.16142 0.029443 0)
(0.187323 -0.0593951 -4.55128e-21)
(0.186638 -0.0617748 0)
(0.18618 -0.063871 -2.22203e-21)
(0.185928 -0.06559 3.34039e-20)
(0.185868 -0.0668415 -3.63095e-20)
(0.185993 -0.0675445 3.51083e-20)
(0.186284 -0.0676209 -3.54082e-20)
(0.186688 -0.067016 -1.67237e-20)
(0.187173 -0.065613 3.53664e-20)
(0.187655 -0.063371 2.1225e-22)
(0.188059 -0.0602835 -1.48217e-20)
(0.188297 -0.0563701 7.0596e-21)
(0.188284 -0.0516902 -3.78044e-21)
(0.187948 -0.046343 -5.07483e-21)
(0.187239 -0.0404623 -2.01094e-19)
(0.186131 -0.0342064 2.03874e-19)
(0.184633 -0.0277455 -3.60718e-21)
(0.182778 -0.0212479 -2.06996e-21)
(0.180627 -0.0148677 4.48422e-21)
(0.178255 -0.00873576 -8.6965e-21)
(0.175746 -0.00295454 2.98193e-23)
(0.173182 0.00240316 1.29372e-20)
(0.17064 0.0072924 -6.62679e-21)
(0.168187 0.0116923 -1.19519e-20)
(0.165877 0.0156012 1.17864e-20)
(0.163751 0.0190322 -1.09602e-20)
(0.161831 0.0220046 1.13503e-20)
(0.160122 0.0245352 -6.01901e-22)
(0.158642 0.0266539 0)
(0.15788 0.0288758 1.43437e-21)
(0.185093 -0.0607438 4.73337e-21)
(0.184415 -0.0628772 -4.01319e-20)
(0.184007 -0.064767 3.84681e-20)
(0.183805 -0.066278 2.36976e-21)
(0.18379 -0.0673194 2.36079e-21)
(0.183957 -0.0678122 0)
(0.184268 -0.0676893 -2.31069e-21)
(0.184695 -0.0668783 -1.99276e-20)
(0.185181 -0.0652762 3.39502e-20)
(0.185649 -0.0628593 -1.83394e-20)
(0.186021 -0.059621 -1.00425e-21)
(0.186209 -0.0555868 7.32791e-21)
(0.18613 -0.0508211 -7.36728e-21)
(0.185715 -0.0454264 -2.04595e-22)
(0.184916 -0.0395373 -2.18239e-19)
(0.183712 -0.0333108 2.18151e-19)
(0.182114 -0.0269132 1.56712e-22)
(0.180158 -0.0205074 -4.4813e-21)
(0.177905 -0.0142409 4.45741e-21)
(0.175432 -0.00823773 5.03919e-22)
(0.172822 -0.00259357 -6.47398e-21)
(0.170158 0.00262484 1.37415e-20)
(0.167517 0.0073778 -5.63088e-21)
(0.164964 0.0116486 6.87696e-22)
(0.162555 0.0154391 0)
(0.16033 0.0187649 -6.85443e-22)
(0.158312 0.0216465 -6.55184e-22)
(0.156506 0.0241022 9.69103e-21)
(0.154933 0.026164 -8.87888e-21)
(0.154079 0.0283478 -1.49174e-21)
(0.182516 -0.0619684 0)
(0.181848 -0.0638667 -5.62035e-23)
(0.181489 -0.0655566 4.02549e-20)
(0.181335 -0.0668638 -4.1035e-20)
(0.181364 -0.0676977 -3.98256e-20)
(0.181567 -0.0679815 6.21864e-20)
(0.181902 -0.067659 -1.73431e-20)
(0.182344 -0.0666361 -2.23712e-23)
(0.182826 -0.0648374 -2.31165e-21)
(0.183274 -0.0622443 0)
(0.183609 -0.0588542 -8.10449e-21)
(0.183742 -0.0546986 1.57616e-20)
(0.183594 -0.0498466 -7.63942e-21)
(0.183098 -0.0444039 2.14087e-22)
(0.182211 -0.0385058 -2.329e-19)
(0.180915 -0.0323075 2.32988e-19)
(0.179223 -0.0259716 -1.63983e-22)
(0.177175 -0.0196555 -4.43625e-21)
(0.174831 -0.0135004 8.42737e-21)
(0.172268 -0.00762368 -3.98623e-21)
(0.16957 -0.00211478 0)
(0.166819 0.00296525 7.52416e-22)
(0.164091 0.00758151 -7.65927e-23)
(0.161451 0.0117212 -6.03717e-21)
(0.158954 0.0153893 1.46934e-20)
(0.156639 0.0186034 -9.88735e-21)
(0.15453 0.0213858 -9.12241e-21)
(0.152633 0.0237561 9.5337e-21)
(0.15097 0.0257489 -6.51976e-23)
(0.150023 0.0278745 0)
(0.179558 -0.0630657 0)
(0.178904 -0.0647367 -3.97961e-20)
(0.178595 -0.0662304 4.3346e-20)
(0.178489 -0.0673362 3.97609e-20)
(0.178562 -0.0679636 -4.32923e-20)
(0.178797 -0.0680405 -2.31887e-20)
(0.179155 -0.0675126 8.25789e-22)
(0.179607 -0.0662748 2.30131e-20)
(0.18008 -0.0642805 4.83779e-21)
(0.180504 -0.061511 0)
(0.180795 -0.0579695 0)
(0.180871 -0.0536933 -6.84339e-21)
(0.180652 -0.0487566 8.38101e-21)
(0.180076 -0.0432676 0)
(0.179103 -0.0373622 -2.46353e-19)
(0.17772 -0.0311935 2.4635e-19)
(0.175942 -0.02492 0)
(0.17381 -0.0186937 4.08824e-21)
(0.171386 -0.0126495 -4.83615e-21)
(0.168747 -0.00689833 0)
(0.165974 -0.00152367 0)
(0.16315 0.00341874 -1.48817e-21)
(0.160348 0.00789839 4.54768e-21)
(0.157634 0.011906 -3.02872e-22)
(0.15506 0.0154492 -4.18333e-21)
(0.152666 0.0185477 -8.67592e-21)
(0.150475 0.0212248 8.99316e-21)
(0.148494 0.0235017 8.11593e-21)
(0.146749 0.0254162 -8.48583e-21)
(0.145707 0.0274676 0)
(0.176183 -0.0640302 0)
(0.175549 -0.0654757 0)
(0.175291 -0.0667762 0)
(0.175236 -0.0676816 -4.20528e-20)
(0.175353 -0.0681014 2.05726e-20)
(0.175614 -0.0679736 2.51442e-20)
(0.175997 -0.0672299 2.72627e-21)
(0.176453 -0.0657786 2.05488e-20)
(0.176914 -0.0635889 -1.14578e-21)
(0.177309 -0.0606435 -1.99224e-20)
(0.177555 -0.056952 -1.13559e-21)
(0.177569 -0.0525581 -2.11953e-21)
(0.177278 -0.0475404 -4.70752e-21)
(0.176624 -0.0420095 3.52603e-21)
(0.175569 -0.0361011 -2.58283e-19)
(0.174104 -0.0299659 2.5829e-19)
(0.172248 -0.0237581 2.57283e-21)
(0.170042 -0.017624 -1.84165e-21)
(0.16755 -0.0116921 9.94965e-22)
(0.164848 -0.00606708 4.17466e-22)
(0.162015 -0.000826635 -5.89964e-21)
(0.159131 0.00397845 6.40074e-22)
(0.15627 0.00832168 5.20306e-21)
(0.153495 0.0121969 -5.15552e-22)
(0.150856 0.0156141 3.58481e-21)
(0.148395 0.0185945 4.06761e-21)
(0.146133 0.0211625 -7.95861e-21)
(0.144077 0.0233406 0)
(0.142256 0.0251698 0)
(0.141124 0.0271352 0)
(0.17235 -0.0648494 -4.77396e-20)
(0.171744 -0.0660711 5.03057e-20)
(0.171542 -0.0671792 0)
(0.171539 -0.0678832 -2.36637e-20)
(0.171699 -0.0680938 2.69165e-20)
(0.17199 -0.0677582 2.27766e-20)
(0.172394 -0.0667917 -2.90394e-20)
(0.172851 -0.065129 0)
(0.173298 -0.062744 -2.64647e-21)
(0.17366 -0.0596242 0)
(0.173856 -0.0557863 3.40392e-24)
(0.173808 -0.0512797 9.10057e-24)
(0.173445 -0.0461871 1.00481e-21)
(0.172714 -0.0406212 4.5506e-22)
(0.171581 -0.0347169 -2.68831e-19)
(0.170042 -0.0286219 2.68816e-19)
(0.168116 -0.0224858 -3.16589e-22)
(0.165848 -0.0164486 -5.51229e-22)
(0.163301 -0.0106326 -4.23367e-23)
(0.160548 -0.00513602 -4.51413e-23)
(0.157669 -3.10315e-05 0)
(0.154741 0.00463627 6.69869e-22)
(0.151835 0.00884307 0)
(0.149013 0.0125859 -2.78049e-21)
(0.146324 0.0158767 3.78384e-21)
(0.143807 0.018738 2.71712e-21)
(0.141485 0.0211948 -3.10485e-21)
(0.139364 0.023271 0)
(0.137477 0.0250101 6.92789e-21)
(0.136259 0.0268812 -7.30536e-21)
(0.168017 -0.0655072 0)
(0.167448 -0.0665061 7.0187e-23)
(0.167306 -0.0674206 5.3375e-20)
(0.16736 -0.0679205 -5.10512e-20)
(0.167562 -0.0679203 3.12702e-21)
(0.167888 -0.0673685 -6.12652e-21)
(0.168309 -0.066176 2.98307e-21)
(0.168766 -0.0643034 0)
(0.169195 -0.0617244 0)
(0.169521 -0.0584338 0)
(0.169666 -0.054455 1.22791e-21)
(0.169555 -0.0498433 -7.48546e-21)
(0.169121 -0.044685 1.20728e-20)
(0.168315 -0.0390939 -5.90863e-21)
(0.16711 -0.0332038 -2.75427e-19)
(0.165503 -0.0271589 2.78506e-19)
(0.163518 -0.0211032 -3.50047e-21)
(0.1612 -0.0151704 6.54398e-21)
(0.15861 -0.00947598 -4.40572e-21)
(0.155822 -0.00411211 -4.05729e-22)
(0.152912 0.000854688 -2.94192e-22)
(0.149954 0.00538273 0)
(0.147019 0.00945254 0)
(0.144164 0.013063 -4.50724e-22)
(0.141438 0.0162276 6.92178e-22)
(0.138879 0.0189697 -2.54208e-22)
(0.136508 0.0213146 -4.43381e-21)
(0.134333 0.0232871 4.12537e-21)
(0.132388 0.0249335 1.02731e-22)
(0.131093 0.0267049 0)
(0.163138 -0.0659808 -5.26433e-20)
(0.162614 -0.0667606 4.88075e-20)
(0.162539 -0.0674766 2.30857e-20)
(0.162654 -0.0677667 -2.68596e-20)
(0.162901 -0.0675547 -2.8804e-20)
(0.163263 -0.0667746 2.95338e-20)
(0.163701 -0.0653587 2.4494e-20)
(0.164156 -0.0632765 -2.19057e-20)
(0.164565 -0.0605066 1.26128e-20)
(0.164853 -0.0570507 -1.13266e-20)
(0.164945 -0.0529394 1.09587e-20)
(0.16477 -0.048233 -5.3664e-21)
(0.164266 -0.0430213 -3.9359e-21)
(0.16339 -0.0374184 2.31836e-22)
(0.162118 -0.0315561 -2.83153e-19)
(0.160453 -0.0255742 2.83132e-19)
(0.15842 -0.0196107 -1.46137e-22)
(0.156063 -0.0137926 -2.10796e-21)
(0.153445 -0.00822826 -1.22017e-21)
(0.150637 -0.00300348 3.04088e-21)
(0.147711 0.00182064 -1.71455e-21)
(0.144741 0.00620664 1.79891e-21)
(0.141791 0.0101381 -2.92197e-21)
(0.138918 0.0136158 2.57944e-21)
(0.13617 0.0166545 1.49739e-21)
(0.133582 0.0192777 -1.49549e-21)
(0.131174 0.0215111 -1.33614e-21)
(0.128957 0.0233799 1.51534e-21)
(0.126964 0.0249324 4.58956e-21)
(0.125598 0.0266015 -4.39096e-21)
(0.15766 -0.0662429 -3.45999e-21)
(0.157189 -0.0668073 -5.48214e-20)
(0.157189 -0.0673167 6.03053e-20)
(0.15737 -0.067392 0)
(0.157668 -0.0669601 -3.46757e-21)
(0.158068 -0.0659459 0)
(0.158521 -0.0643082 -3.31736e-21)
(0.158973 -0.0620187 2.45394e-20)
(0.15936 -0.0590629 -2.64465e-20)
(0.159608 -0.0554503 1.41624e-21)
(0.159646 -0.051218 -2.62146e-21)
(0.159407 -0.0464313 -1.19009e-21)
(0.158836 -0.0411822 -5.42302e-22)
(0.157894 -0.0355847 -2.40639e-22)
(0.156563 -0.0297675 -2.86199e-19)
(0.154849 -0.0238654 2.8619e-19)
(0.152779 -0.0180096 1.51686e-22)
(0.150398 -0.0123196 2.50984e-22)
(0.147768 -0.00689667 -3.49867e-22)
(0.144954 -0.00181988 0)
(0.14203 0.00285499 -1.90536e-22)
(0.139063 0.00709452 -2.1077e-21)
(0.136115 0.010885 2.40448e-21)
(0.133241 0.014229 9.09008e-23)
(0.130485 0.0171417 0)
(0.127882 0.0196469 -9.18326e-25)
(0.12545 0.0217696 0)
(0.123201 0.0235355 8.07345e-22)
(0.121171 0.0249943 -7.41018e-22)
(0.119744 0.0265607 1.76003e-22)
(0.151517 -0.0662606 -5.44821e-20)
(0.151113 -0.0666061 5.72375e-20)
(0.151197 -0.0669005 9.66624e-23)
(0.151447 -0.0667574 3.22206e-20)
(0.151806 -0.0660923 -5.41583e-20)
(0.152242 -0.0648449 3.2608e-20)
(0.152712 -0.0629873 3.41481e-21)
(0.15316 -0.0604949 3.81589e-23)
(0.153522 -0.0573615 0)
(0.153728 -0.0536042 -1.46255e-21)
(0.153711 -0.0492665 -7.54079e-21)
(0.15341 -0.044418 1.15897e-20)
(0.152775 -0.0391522 5.39521e-22)
(0.151773 -0.0335818 -1.5323e-21)
(0.150392 -0.0278317 -2.84104e-19)
(0.148639 -0.0220305 2.87119e-19)
(0.146546 -0.0163018 -1.3641e-21)
(0.144156 -0.0107573 -2.02179e-22)
(0.141528 -0.00549035 2.65891e-21)
(0.138728 -0.000573411 -2.27071e-21)
(0.135823 0.00394314 1.96766e-22)
(0.132877 0.00802976 0)
(0.129949 0.0116752 1.69674e-22)
(0.127089 0.0148832 -9.35702e-23)
(0.124341 0.0176694 -3.31676e-22)
(0.121737 0.0200571 1.17304e-21)
(0.119295 0.0220705 -5.18951e-22)
(0.117026 0.0237351 1.57796e-22)
(0.114968 0.0251015 2.64641e-22)
(0.113489 0.0265661 -4.48061e-22)
(0.144635 -0.0659859 0)
(0.144314 -0.0661067 0)
(0.14449 -0.0661778 -3.38695e-20)
(0.144819 -0.0658085 2.73721e-20)
(0.145241 -0.0649031 0)
(0.145716 -0.0634251 -3.66792e-21)
(0.146203 -0.0613506 -3.61677e-21)
(0.146646 -0.0586628 -3.41043e-21)
(0.146981 -0.0553639 0)
(0.147144 -0.0514786 0)
(0.147072 -0.0470563 -1.38758e-21)
(0.146709 -0.0421699 5.2958e-21)
(0.146013 -0.0369136 -5.82067e-21)
(0.144958 -0.0313978 -2.41709e-22)
(0.143535 -0.0257422 -2.8172e-19)
(0.141758 -0.0200681 2.81786e-19)
(0.139655 -0.014491 1.35443e-22)
(0.137273 -0.00911357 -9.35821e-22)
(0.134667 -0.0040213 1.30647e-21)
(0.131899 0.000720394 0)
(0.129032 0.0050665 0)
(0.126126 0.0089912 0)
(0.123236 0.0124854 0)
(0.12041 0.0155539 -2.51369e-22)
(0.117686 0.018212 -1.26377e-22)
(0.115097 0.0204821 0)
(0.112658 0.0223875 -2.51117e-21)
(0.110381 0.0239526 2.04225e-21)
(0.108307 0.0252285 0)
(0.106786 0.0265937 0)
(0.136923 -0.0653544 -3.98973e-21)
(0.136702 -0.0652428 0)
(0.136981 -0.0650862 0)
(0.137401 -0.0644763 0)
(0.137889 -0.0633312 0)
(0.138405 -0.0616253 0)
(0.138907 -0.0593408 3.69387e-21)
(0.139342 -0.0564698 1.79175e-21)
(0.139648 -0.0530231 -1.27878e-20)
(0.139765 -0.0490327 2.80855e-21)
(0.139637 -0.0445531 2.40224e-20)
(0.139215 -0.0396598 -1.61353e-20)
(0.138463 -0.0344464 7.02196e-22)
(0.137363 -0.0290195 4.10031e-21)
(0.13591 -0.0234924 -2.72718e-19)
(0.134121 -0.0179782 2.72675e-19)
(0.132026 -0.0125828 1.57305e-21)
(0.12967 -0.00739978 -5.56739e-22)
(0.127106 -0.00250578 -2.19171e-21)
(0.124391 0.00204088 1.45899e-21)
(0.121585 0.00620058 -6.05908e-22)
(0.118741 0.0099511 3.02106e-22)
(0.11591 0.0132853 1.891e-22)
(0.113136 0.0162083 2.56725e-22)
(0.110456 0.0187351 0)
(0.107897 0.0208868 0)
(0.105477 0.0226847 0)
(0.103207 0.0241522 0)
(0.101127 0.0253401 0)
(0.0995734 0.0266086 -3.52676e-22)
(0.128268 -0.0642792 8.21842e-21)
(0.128169 -0.0639289 -3.28011e-20)
(0.128564 -0.0635322 3.40803e-20)
(0.129081 -0.0626759 0)
(0.129637 -0.0612945 -3.20534e-20)
(0.130194 -0.0593669 3.7044e-20)
(0.13071 -0.0568845 -3.17258e-20)
(0.131133 -0.0538492 2.68417e-20)
(0.131406 -0.05028 0)
(0.131475 -0.0462157 1.0413e-20)
(0.13129 -0.0417152 -2.88365e-21)
(0.130812 -0.0368551 -1.56236e-20)
(0.13001 -0.0317269 5.31873e-21)
(0.128874 -0.0264322 1.65008e-21)
(0.127404 -0.0210763 -2.59507e-19)
(0.12562 -0.0157628 2.56764e-19)
(0.123553 -0.0105871 9.55793e-22)
(0.121245 -0.00563249 5.68542e-22)
(0.118747 -0.000966621 -1.11439e-21)
(0.11611 0.00335961 9.67098e-22)
(0.113388 0.00731203 -5.02717e-22)
(0.11063 0.0108718 -2.48482e-22)
(0.107882 0.0140335 -4.87572e-21)
(0.105183 0.0168023 3.90504e-21)
(0.102567 0.0191923 -4.64762e-21)
(0.100059 0.0212228 5.27882e-21)
(0.0976749 0.0229127 0)
(0.0954257 0.0242841 -5.58676e-21)
(0.0933543 0.025386 5.40899e-21)
(0.0917784 0.026561 9.52301e-22)
(0.118532 -0.0626371 2.62057e-20)
(0.118574 -0.0620407 -3.41155e-20)
(0.119099 -0.0613923 -3.00876e-20)
(0.119716 -0.0602927 3.57548e-20)
(0.120342 -0.0586808 3.7588e-20)
(0.120937 -0.0565444 -7.46648e-20)
(0.121462 -0.053885 5.2348e-20)
(0.121867 -0.0507141 -1.38623e-20)
(0.122102 -0.0470587 0)
(0.12212 -0.0429636 -1.21444e-20)
(0.121878 -0.0384906 1.09227e-20)
(0.121345 -0.0337161 -6.26588e-22)
(0.120502 -0.0287278 -1.9495e-21)
(0.119342 -0.0236203 2.74508e-21)
(0.117872 -0.0184897 -2.36581e-19)
(0.116113 -0.0134281 2.35381e-19)
(0.114097 -0.00851975 8.68595e-22)
(0.111864 -0.00383666 -4.62005e-22)
(0.109458 0.00056305 -3.02817e-23)
(0.106928 0.00463613 -1.67227e-21)
(0.10432 0.00835383 1.68968e-21)
(0.101677 0.0117006 6.39449e-22)
(0.0990392 0.0146722 3.58103e-21)
(0.0964418 0.0172739 -9.50774e-21)
(0.0939144 0.0195181 1.27596e-20)
(0.0914801 0.0214217 -6.28849e-21)
(0.0891522 0.0230013 -8.01707e-21)
(0.0869425 0.0242764 7.7605e-21)
(0.0848942 0.025294 6.48428e-21)
(0.0833089 0.0263778 -8.08672e-21)
(0.107529 -0.0602467 4.09494e-20)
(0.107735 -0.0593939 4.81197e-21)
(0.108394 -0.0584974 -5.73124e-21)
(0.109112 -0.0571612 -3.72117e-20)
(0.109804 -0.0553338 -4.35477e-21)
(0.110431 -0.053013 6.40528e-21)
(0.110955 -0.0502108 5.73802e-23)
(0.111334 -0.046948 0)
(0.111524 -0.0432589 0)
(0.111486 -0.039193 -1.21868e-20)
(0.111188 -0.0348132 1.38725e-20)
(0.110607 -0.0301939 6.31055e-22)
(0.109732 -0.0254169 0)
(0.108564 -0.0205679 5.21286e-22)
(0.107114 -0.0157316 -2.06355e-19)
(0.105406 -0.0109877 2.05283e-19)
(0.10347 -0.00640739 3.45809e-22)
(0.101343 -0.002051 0)
(0.0990649 0.00203349 3.04975e-23)
(0.096676 0.0058107 -2.34784e-21)
(0.0942164 0.00925728 2.19058e-21)
(0.0917232 0.0123607 -3.8957e-22)
(0.08923 0.0151178 0)
(0.0867666 0.0175331 1.68781e-22)
(0.0843585 0.019617 1.78889e-21)
(0.082026 0.0213839 -1.11917e-21)
(0.0797806 0.0228471 1.05129e-20)
(0.0776337 0.0240233 -1.33464e-23)
(0.0756285 0.0249563 4.34723e-22)
(0.0740495 0.0259497 -8.15679e-21)
(0.0950084 -0.0568264 -3.82671e-20)
(0.0953929 -0.0557263 3.27451e-20)
(0.0961851 -0.054591 0)
(0.0969965 -0.0530378 -3.40935e-20)
(0.0977421 -0.0510264 4.01053e-20)
(0.0983856 -0.0485654 -1.90984e-20)
(0.0988957 -0.0456768 3.13985e-20)
(0.099236 -0.0423898 -1.44776e-20)
(0.0993718 -0.0387445 0)
(0.0992738 -0.0347931 0)
(0.0989206 -0.0305977 5.93634e-21)
(0.0982997 -0.026228 -5.90857e-21)
(0.0974088 -0.0217576 0)
(0.096255 -0.0172609 1.96501e-22)
(0.0948544 -0.0128094 -1.6527e-19)
(0.0932307 -0.00846845 1.65236e-19)
(0.0914128 -0.00429533 -3.69525e-23)
(0.0894328 -0.00033763 0)
(0.0873244 0.00336722 1.20681e-21)
(0.085121 0.00679182 -1.1088e-21)
(0.0828546 0.00991813 0)
(0.0805551 0.0127364 0)
(0.0782493 0.0152441 6.75855e-21)
(0.0759613 0.0174444 -1.27438e-20)
(0.0737123 0.0193457 5.40712e-21)
(0.071519 0.0209589 -1.23762e-20)
(0.0693909 0.0222937 1.38045e-20)
(0.0673387 0.0233635 0)
(0.0654047 0.0242078 -1.29624e-20)
(0.0638542 0.0251076 1.02426e-20)
(0.0806106 -0.0519293 -3.75355e-20)
(0.0811714 -0.0506102 3.65103e-20)
(0.0820794 -0.0492681 -3.87008e-20)
(0.0829604 -0.0475455 6.14749e-23)
(0.0837342 -0.0454145 4.20499e-22)
(0.0843698 -0.0428934 5.70172e-20)
(0.0848433 -0.0400129 -1.77966e-20)
(0.0851279 -0.0368087 -1.95207e-21)
(0.0851992 -0.0333246 1.34506e-20)
(0.0850393 -0.0296128 -2.55855e-20)
(0.084638 -0.0257317 1.20422e-20)
(0.0839934 -0.0217432 4.6406e-21)
(0.0831115 -0.0177101 -5.64775e-21)
(0.0820054 -0.0136929 2.07071e-21)
(0.0806943 -0.00974754 -1.1337e-19)
(0.0792015 -0.00592356 1.12725e-19)
(0.0775526 -0.00226311 -2.91846e-22)
(0.0757743 0.00119954 1.78213e-21)
(0.0738928 0.00443782 -1.24807e-21)
(0.0719333 0.00743234 -5.27599e-21)
(0.0699191 0.0101702 1.15891e-20)