/*--------------------------------*- C++ -*----------------------------------*\
  =========                 |
  \\      /  F ield         | OpenFOAM: The Open Source CFD Toolbox
   \\    /   O peration     | Website:  https://openfoam.org
    \\  /    A nd           | Version:  12
     \\/     M anipulation  |
\*---------------------------------------------------------------------------*/
FoamFile
{
    format      ascii;
    class       volVectorField;
    location    "400";
    object      UMean;
}
// * * * * * * * * * * * * * * * * * * * * * * * * * * * * * * * * * * * * * //

dimensions      [0 1 -1 0 0 0 0];

internalField   nonuniform List<vector> 
6750
(
(0.20007 -0.00309247 0)
(0.200357 -0.00943196 0)
(0.200643 -0.0152543 0)
(0.200889 -0.0206357 0)
(0.200774 -0.0256719 0)
(0.200037 -0.00347055 0)
(0.20028 -0.0100294 0)
(0.200483 -0.0157825 0)
(0.200561 -0.0208811 0)
(0.200446 -0.025413 0)
(0.200026 -0.00363407 0)
(0.200128 -0.0102576 0)
(0.200143 -0.0158822 0)
(0.200021 -0.0206969 0)
(0.199778 -0.0248018 0)
(0.20001 -0.0036676 0)
(0.199959 -0.0102075 0)
(0.199781 -0.0156396 0)
(0.199477 -0.0201905 0)
(0.199102 -0.023997 0)
(0.199995 -0.00359985 0)
(0.199802 -0.00992743 0)
(0.19944 -0.0151114 0)
(0.198958 -0.0194051 0)
(0.198437 -0.0229704 0)
(0.199983 -0.00344828 0)
(0.19966 -0.00945211 0)
(0.199121 -0.0143311 0)
(0.198457 -0.0183502 0)
(0.197771 -0.0216802 0)
(0.199973 -0.00322729 0)
(0.199527 -0.00880894 0)
(0.198814 -0.0133239 0)
(0.197964 -0.017035 0)
(0.197098 -0.0201109 0)
(0.199964 -0.00294795 0)
(0.1994 -0.00802079 0)
(0.198518 -0.0121135 0)
(0.197482 -0.0154764 0)
(0.19643 -0.0182681 0)
(0.199955 -0.00261991 0)
(0.199282 -0.00711032 0)
(0.198239 -0.0107281 0)
(0.197023 -0.0137026 0)
(0.195789 -0.0161769 0)
(0.199948 -0.002253 0)
(0.199175 -0.00610226 0)
(0.197986 -0.00920151 0)
(0.196606 -0.0117523 0)
(0.1952 -0.0138788 0)
(0.199942 -0.00185764 0)
(0.199083 -0.00502351 0)
(0.197767 -0.0075724 0)
(0.196244 -0.00967249 0)
(0.194688 -0.0114268 0)
(0.199937 -0.00144457 0)
(0.199009 -0.00390188 0)
(0.197591 -0.0058814 0)
(0.195952 -0.00751374 0)
(0.194272 -0.00887936 0)
(0.199933 -0.00102418 0)
(0.198956 -0.00276439 0)
(0.19746 -0.00416836 0)
(0.195735 -0.00532612 0)
(0.193963 -0.00629558 0)
(0.199929 -0.000605753 0)
(0.198924 -0.00163585 0)
(0.197378 -0.00246944 0)
(0.195597 -0.00315535 0)
(0.193764 -0.00372988 0)
(0.19992 -0.000201041 0)
(0.198919 -0.00053593 0)
(0.197341 -0.000813377 0)
(0.195532 -0.00103957 0)
(0.19367 -0.00122883 0)
(0.19992 0.000200976 0)
(0.198919 0.000535844 0)
(0.197341 0.000813311 0)
(0.195532 0.00103954 0)
(0.19367 0.00122884 0)
(0.199929 0.000605687 0)
(0.198924 0.00163577 0)
(0.197378 0.00246937 0)
(0.195597 0.00315532 0)
(0.193764 0.00372989 0)
(0.199933 0.00102411 0)
(0.198956 0.0027643 0)
(0.19746 0.0041683 0)
(0.195735 0.0053261 0)
(0.193963 0.00629559 0)
(0.199937 0.00144451 0)
(0.199009 0.0039018 0)
(0.197591 0.00588134 0)
(0.195952 0.00751372 0)
(0.194272 0.00887937 0)
(0.199942 0.00185758 0)
(0.199083 0.00502343 0)
(0.197767 0.00757234 0)
(0.196244 0.00967247 0)
(0.194688 0.0114268 0)
(0.199948 0.00225294 0)
(0.199175 0.00610218 0)
(0.197986 0.00920146 0)
(0.196606 0.0117523 0)
(0.1952 0.0138789 0)
(0.199955 0.00261985 0)
(0.199282 0.00711024 0)
(0.198239 0.010728 0)
(0.197023 0.0137025 0)
(0.195789 0.016177 0)
(0.199964 0.0029479 0)
(0.1994 0.00802073 0)
(0.198518 0.0121135 0)
(0.197482 0.0154764 0)
(0.19643 0.0182681 0)
(0.199973 0.00322725 0)
(0.199527 0.00880887 0)
(0.198814 0.0133238 0)
(0.197964 0.017035 0)
(0.197098 0.0201109 0)
(0.199983 0.00344824 0)
(0.19966 0.00945206 0)
(0.199121 0.0143311 0)
(0.198457 0.0183502 0)
(0.197771 0.0216802 0)
(0.199995 0.00359982 0)
(0.199802 0.00992738 0)
(0.19944 0.0151114 0)
(0.198958 0.0194051 0)
(0.198437 0.0229705 0)
(0.20001 0.00366758 0)
(0.199959 0.0102074 0)
(0.199781 0.0156396 0)
(0.199477 0.0201905 0)
(0.199102 0.023997 0)
(0.200026 0.00363405 0)
(0.200128 0.0102576 0)
(0.200143 0.0158822 0)
(0.200021 0.0206969 0)
(0.199778 0.0248018 0)
(0.200037 0.00347054 0)
(0.20028 0.0100293 0)
(0.200483 0.0157825 0)
(0.200561 0.0208811 0)
(0.200446 0.025413 0)
(0.20007 0.00309246 0)
(0.200357 0.00943193 0)
(0.200643 0.0152543 0)
(0.200889 0.0206357 0)
(0.200774 0.0256718 0)
(0.198764 -0.0369231 0)
(0.197157 -0.0422192 0)
(0.195806 -0.0470467 0)
(0.194892 -0.0513593 1.52899e-22)
(0.194272 -0.0550529 0)
(0.19389 -0.0580713 0)
(0.193734 -0.0603525 -1.0677e-20)
(0.19379 -0.0618051 1.07784e-20)
(0.194037 -0.0623183 9.00092e-23)
(0.194408 -0.0618355 5.73294e-21)
(0.194874 -0.0602234 3.70488e-23)
(0.195356 -0.0573525 1.32439e-23)
(0.195777 -0.0532816 -2.97897e-21)
(0.196053 -0.0480789 -2.96893e-21)
(0.196111 -0.041886 -6.93232e-21)
(0.195896 -0.0349107 6.93481e-21)
(0.195379 -0.0274095 -2.76107e-21)
(0.194561 -0.0196609 -2.52441e-21)
(0.193473 -0.011943 2.29786e-22)
(0.192163 -0.00450764 2.6675e-22)
(0.190687 0.00244005 4.77037e-21)
(0.189121 0.00878517 -6.89578e-23)
(0.187549 0.0144091 7.69535e-21)
(0.18603 0.0192602 -7.62729e-21)
(0.184617 0.0233322 0)
(0.183349 0.0266495 0)
(0.182256 0.0292561 -8.75029e-23)
(0.181365 0.0312077 0)
(0.180699 0.0325655 0)
(0.180242 0.0333622 0)
(0.197939 -0.0401429 0)
(0.19649 -0.045345 0)
(0.195414 -0.049755 0)
(0.19468 -0.0535788 -1.44539e-22)
(0.194173 -0.056805 0)
(0.19388 -0.0593965 0)
(0.1938 -0.0612856 1.11182e-20)
(0.193917 -0.0623792 -1.13974e-20)
(0.194206 -0.0625748 -8.47308e-23)
(0.194603 -0.0618319 0)
(0.195076 -0.0599908 0)
(0.195543 -0.0569838 -5.46767e-21)
(0.195935 -0.0528642 5.48488e-21)
(0.196174 -0.0477023 0)
(0.196193 -0.0416331 -1.82987e-20)
(0.195946 -0.0348485 1.82997e-20)
(0.195407 -0.0275808 0)
(0.19458 -0.0200832 4.90895e-21)
(0.193494 -0.0126051 -4.93482e-21)
(0.192194 -0.00537431 0)
(0.190743 0.00142252 0)
(0.189203 0.00766491 6.47109e-23)
(0.187642 0.0132479 -7.52506e-21)
(0.186125 0.018118 7.57995e-21)
(0.184702 0.0222607 0)
(0.183409 0.0256911 0)
(0.182276 0.0284445 8.24241e-23)
(0.181324 0.0305681 0)
(0.18058 0.0321219 0)
(0.180051 0.0331745 0)
(0.197158 -0.0426267 0)
(0.196014 -0.0473375 0)
(0.195111 -0.0513475 0)
(0.194465 -0.0548542 1.17158e-20)
(0.194031 -0.0578136 -1.18454e-20)
(0.193809 -0.0601659 1.2372e-20)
(0.193795 -0.0618318 -1.24882e-20)
(0.193973 -0.0627166 1.89076e-22)
(0.194309 -0.0627264 0)
(0.194744 -0.0618233 0)
(0.19524 -0.0598352 -1.88619e-22)
(0.195711 -0.056738 0)
(0.196091 -0.0525756 0)
(0.196301 -0.0474207 -4.31521e-23)
(0.196279 -0.0414065 -2.97095e-20)
(0.19598 -0.0347177 2.97102e-20)
(0.195383 -0.0275758 3.84096e-23)
(0.194498 -0.0202192 0)
(0.193354 -0.0128826 0)
(0.192002 -0.00577834 1.33285e-22)
(0.190502 0.00091851 0)
(0.18892 0.00707462 0)
(0.187322 0.0126066 -1.23728e-22)
(0.185769 0.0174612 -6.80207e-21)
(0.184307 0.0216212 6.73874e-21)
(0.182974 0.0250973 -5.8824e-21)
(0.181796 0.0279193 5.80469e-21)
(0.180789 0.030128 0)
(0.179986 0.0317835 0)
(0.179453 0.0330152 0)
(0.196466 -0.0448557 0)
(0.195535 -0.0491629 -2.59995e-20)
(0.194732 -0.052854 1.30735e-20)
(0.194155 -0.0560839 2.73262e-20)
(0.19379 -0.0587903 -2.76597e-20)
(0.193638 -0.0609051 1.37553e-20)
(0.19369 -0.0623464 0)
(0.193931 -0.0630214 4.31227e-22)
(0.194312 -0.0628516 0)
(0.194795 -0.0617803 0)
(0.195318 -0.0596499 6.69916e-21)
(0.195802 -0.056465 -6.32899e-21)
(0.196175 -0.0522608 0)
(0.196359 -0.0471133 4.5304e-23)
(0.19629 -0.0411538 -4.05803e-20)
(0.195926 -0.0345605 4.05827e-20)
(0.195252 -0.0275443 -4.03262e-23)
(0.194278 -0.0203305 0)
(0.193041 -0.0131397 -4.38075e-21)
(0.191595 -0.00617083 4.09473e-21)
(0.190005 0.000411052 1.18155e-22)
(0.188338 0.00648122 0)
(0.186662 0.0119565 -2.06369e-22)
(0.185037 0.0167876 0)
(0.183509 0.0209567 5.85561e-21)
(0.182116 0.0244718 -1.0988e-20)
(0.180881 0.0273581 1.00461e-20)
(0.179815 0.02965 4.11749e-21)
(0.178952 0.0314037 -8.83642e-21)
(0.178436 0.0328135 0)
(0.195752 -0.0469767 0)
(0.194951 -0.0509355 3.00382e-20)
(0.194228 -0.0543308 -2.95056e-20)
(0.193723 -0.0572895 0)
(0.193429 -0.059744 0)
(0.193345 -0.0616222 4.8343e-22)
(0.193462 -0.0628404 0)
(0.193763 -0.0633067 -4.51753e-22)
(0.194194 -0.0629602 7.08086e-21)
(0.194723 -0.0617143 -7.19246e-21)
(0.195272 -0.0594452 -6.90875e-21)
(0.195768 -0.0561681 6.72874e-21)
(0.196133 -0.0519167 1.95465e-22)
(0.196286 -0.0467694 -9.21063e-23)
(0.196164 -0.0408563 -5.09148e-20)
(0.195726 -0.0343501 5.09181e-20)
(0.194961 -0.0274526 7.48433e-23)
(0.193883 -0.0203772 -1.38826e-22)
(0.192533 -0.0133314 4.17481e-21)
(0.19097 -0.00650183 -4.0224e-21)
(0.189264 -4.29968e-05 -3.75454e-21)
(0.187486 0.00592851 3.60483e-21)
(0.185706 0.0113333 2.16274e-22)
(0.183983 0.0161252 0)
(0.182368 0.0202871 -1.63108e-22)
(0.180896 0.0238252 0)
(0.179589 0.0267616 0)
(0.178456 0.029125 -8.46102e-21)
(0.177526 0.030966 8.10498e-21)
(0.177022 0.032544 0)
(0.194944 -0.0489938 3.17964e-20)
(0.194225 -0.0526222 -4.99318e-20)
(0.193579 -0.055736 1.64156e-20)
(0.193145 -0.0584358 0)
(0.192922 -0.0606495 1.64863e-20)
(0.192904 -0.0623006 -1.61317e-20)
(0.193083 -0.0633038 1.56611e-20)
(0.193443 -0.0635699 -1.62059e-20)
(0.193923 -0.0630494 0)
(0.194493 -0.0616284 -4.78112e-22)
(0.195066 -0.0592232 7.09227e-21)
(0.195569 -0.05585 -3.7648e-21)
(0.195919 -0.0515439 -6.19887e-22)
(0.196035 -0.0463862 -3.07683e-21)
(0.195854 -0.0405064 -6.06975e-20)
(0.195336 -0.0340731 6.06949e-20)
(0.194472 -0.0272804 -2.42144e-21)
(0.193281 -0.020332 4.61391e-22)
(0.191809 -0.0134239 -1.81751e-21)
(0.190118 -0.00673124 3.94464e-21)
(0.188282 -0.000398607 2.04127e-22)
(0.186378 0.00546514 0)
(0.184477 0.0107861 -5.73844e-21)
(0.182642 0.0155219 5.84079e-21)
(0.180922 0.019657 -5.04036e-21)
(0.179355 0.0231973 4.86083e-21)
(0.177963 0.0261628 2.48931e-22)
(0.176752 0.0285777 3.89352e-21)
(0.175748 0.0304869 -1.16649e-20)
(0.175239 0.03221 8.34412e-21)
(0.194001 -0.0508939 -1.70357e-20)
(0.193337 -0.0542081 1.92407e-20)
(0.192761 -0.0570595 1.91708e-20)
(0.192397 -0.0595169 -1.94361e-20)
(0.19224 -0.0615026 1.80012e-20)
(0.192287 -0.0629364 -1.93318e-20)
(0.192528 -0.0637332 -5.8516e-22)
(0.192943 -0.0638079 0)
(0.193469 -0.0631132 8.17425e-21)
(0.194073 -0.0615185 7.84839e-23)
(0.194664 -0.0589783 2.86669e-23)
(0.195168 -0.055505 -7.75846e-21)
(0.195496 -0.0511366 -3.06302e-21)
(0.195568 -0.0459577 4.79797e-21)
(0.195322 -0.0400979 -7.12584e-20)
(0.194719 -0.0337229 6.848e-20)
(0.193753 -0.0270209 3.54623e-21)
(0.192447 -0.0201868 -2.55125e-21)
(0.190848 -0.013407 -3.73568e-21)
(0.189026 -0.00684668 1.28425e-22)
(0.187057 -0.000640794 7.69498e-23)
(0.18502 0.00510935 3.0424e-21)
(0.182991 0.0103358 0)
(0.181033 0.0150005 1.1012e-22)
(0.179198 0.0190902 -4.02617e-21)
(0.177525 0.0226118 4.27763e-21)
(0.176037 0.0255842 -3.71892e-21)
(0.174738 0.0280287 3.42503e-21)
(0.17365 0.0299851 3.58127e-21)
(0.173117 0.0318242 -4.04783e-21)
(0.192886 -0.052676 0)
(0.192259 -0.0556962 1.83682e-20)
(0.19175 -0.0583059 -2.23559e-20)
(0.191452 -0.0605363 2.09091e-20)
(0.19136 -0.0623051 -1.99729e-20)
(0.191468 -0.0635302 1.80569e-20)
(0.19177 -0.0641269 -1.8297e-20)
(0.192231 -0.064018 -1.17931e-21)
(0.192802 -0.0631432 -5.68347e-22)
(0.193432 -0.0613779 -5.43921e-22)
(0.194035 -0.0587023 -5.08598e-22)
(0.194531 -0.055124 2.38977e-22)
(0.19483 -0.0506858 -3.6055e-21)
(0.194852 -0.0454759 1.85192e-21)
(0.194536 -0.0396244 -7.65886e-20)
(0.193845 -0.0332948 7.93786e-20)
(0.192776 -0.0266704 9.7513e-22)
(0.191354 -0.0199391 -1.95459e-21)
(0.189631 -0.0132786 1.0865e-22)
(0.187679 -0.00684509 4.07007e-22)
(0.185577 -0.000764912 1.65701e-22)
(0.183408 0.00486809 1.45507e-22)
(0.181249 0.00999198 2.5743e-22)
(0.179165 0.0145731 -4.28232e-21)
(0.177211 0.0186015 4.1531e-21)
(0.175426 0.0220854 -3.3497e-21)
(0.173833 0.0250437 3.07955e-21)
(0.172438 0.0274962 -2.5454e-21)
(0.17126 0.0294788 3.05859e-21)
(0.170683 0.031403 0)
(0.191567 -0.0543445 0)
(0.190967 -0.0570918 1.36862e-21)
(0.190521 -0.0594782 -1.87305e-20)
(0.190286 -0.061495 3.96675e-22)
(0.190256 -0.0630563 2.1693e-20)
(0.190424 -0.0640793 1.3018e-21)
(0.190782 -0.0644795 1.30394e-21)
(0.191282 -0.0641923 -8.47343e-21)
(0.191893 -0.0631321 1.04839e-20)
(0.192542 -0.0612002 -7.62573e-24)
(0.193149 -0.0583856 -4.14682e-21)
(0.193629 -0.0546971 4.17173e-21)
(0.193891 -0.0501824 -1.51481e-21)
(0.193857 -0.0449327 1.75083e-21)
(0.193467 -0.0390793 -8.5755e-20)
(0.192687 -0.0327841 8.57513e-20)
(0.191515 -0.0262262 1.07284e-21)
(0.18998 -0.0195874 -1.19993e-21)
(0.188138 -0.0130379 1.48647e-21)
(0.186061 -0.00672548 -1.9593e-21)
(0.183832 -0.000768818 -3.02961e-23)
(0.181535 0.00474535 2.03113e-21)
(0.179249 0.00976098 -2.3108e-21)
(0.177041 0.014249 -1.78153e-22)
(0.174967 0.0182027 -2.16577e-22)
(0.173068 0.0216324 2.59646e-21)
(0.171368 0.0245577 -2.1121e-22)
(0.169871 0.0269979 -2.58379e-21)
(0.168597 0.0289868 0)
(0.167958 0.0309654 0)
(0.190013 -0.0559047 0)
(0.189434 -0.0583987 -2.45789e-20)
(0.189047 -0.0605776 3.95431e-22)
(0.188874 -0.0623916 5.00711e-22)
(0.188902 -0.0637528 4.48401e-20)
(0.189127 -0.0645789 -2.31714e-20)
(0.189535 -0.064787 -1.36271e-21)
(0.190074 -0.0643201 0)
(0.190715 -0.063072 9.29968e-21)
(0.191375 -0.060974 -9.45325e-21)
(0.191977 -0.0580172 4.34954e-21)
(0.192433 -0.0542139 -3.95578e-22)
(0.192652 -0.0496164 -4.00066e-21)
(0.192557 -0.0443197 1.04766e-22)
(0.192089 -0.0384561 -9.25213e-20)
(0.191219 -0.0321864 9.25583e-20)
(0.189946 -0.025686 -6.6661e-23)
(0.188303 -0.0191311 -1.73048e-21)
(0.186347 -0.0126851 2.80133e-22)
(0.184153 -0.00648845 1.75835e-21)
(0.181804 -0.000652508 -2.12149e-21)
(0.179388 0.00474255 1.92053e-21)
(0.176982 0.00964627 0)
(0.174656 0.0140341 1.8618e-22)
(0.172466 0.0179026 -1.97918e-21)
(0.170455 0.0212645 3.76182e-21)
(0.168646 0.0241404 -1.90784e-22)
(0.167046 0.0265501 9.59635e-23)
(0.165674 0.0285269 -1.44278e-21)
(0.16496 0.0305307 0)
(0.188191 -0.0573613 -3.24483e-21)
(0.187631 -0.0596193 0)
(0.187303 -0.0616031 -1.55542e-21)
(0.187188 -0.063223 2.3304e-20)
(0.187273 -0.0643896 -2.53677e-20)
(0.187551 -0.065022 2.40308e-20)
(0.188002 -0.0650421 -2.42136e-20)
(0.188577 -0.0643894 -1.10773e-20)
(0.189238 -0.062952 2.32009e-20)
(0.189903 -0.0606875 -1.42438e-22)
(0.190493 -0.0575854 -9.36256e-21)
(0.190917 -0.0536631 4.13214e-21)
(0.191086 -0.048978 -2.3088e-21)
(0.190925 -0.0436286 -2.7692e-21)
(0.190378 -0.0377487 -9.75685e-20)
(0.189417 -0.0314977 9.89183e-20)
(0.188047 -0.0250479 -1.49331e-21)
(0.186302 -0.0185702 -6.1306e-22)
(0.18424 -0.0122217 1.57735e-21)
(0.181937 -0.00613611 -2.25174e-21)
(0.179479 -0.000417975 3.52001e-22)
(0.176952 0.0048586 2.48755e-21)
(0.174436 0.00964838 -1.13449e-21)
(0.172 0.0139311 -1.28283e-21)
(0.169701 0.0177065 1.26508e-21)
(0.167582 0.0209898 -8.06418e-22)
(0.165669 0.0238029 7.30592e-22)
(0.163967 0.0261664 4.86923e-24)
(0.162496 0.0281146 0)
(0.161698 0.0301176 2.40514e-22)
(0.186072 -0.0587179 3.37468e-21)
(0.18553 -0.0607541 -2.87136e-20)
(0.185258 -0.0625522 2.75099e-20)
(0.185201 -0.0639839 1.67136e-21)
(0.18534 -0.0649593 1.65184e-21)
(0.18567 -0.0653989 0)
(0.186154 -0.0652336 -1.5931e-21)
(0.186762 -0.0643872 -1.33398e-20)
(0.187437 -0.0627613 2.24459e-20)
(0.188099 -0.060328 -1.19654e-20)
(0.188669 -0.0570774 -6.24968e-22)
(0.189054 -0.0530327 4.27954e-21)
(0.189168 -0.0482567 -4.30253e-21)
(0.188937 -0.0428511 -1.08526e-22)
(0.188309 -0.0369508 -1.0307e-19)
(0.18726 -0.0307142 1.03032e-19)
(0.185796 -0.0243104 6.04242e-23)
(0.183954 -0.0179053 -1.41803e-21)
(0.181794 -0.01165 1.41055e-21)
(0.179393 -0.00567166 1.27868e-22)
(0.176837 -6.87178e-05 -9.11282e-22)
(0.174211 0.00509043 1.66459e-21)
(0.171596 0.00976539 -5.82305e-22)
(0.16906 0.0139398 -1.94124e-23)
(0.166661 0.0176166 0)
(0.164443 0.0208132 -1.70473e-23)
(0.162429 0.0235529 -4.90751e-24)
(0.160629 0.0258573 -4.10135e-22)
(0.159063 0.0277628 4.15645e-22)
(0.158175 0.0297427 -2.50171e-22)
(0.183622 -0.0599759 0)
(0.183099 -0.0618011 -6.28801e-23)
(0.182884 -0.0634194 2.89949e-20)
(0.182883 -0.0646666 -2.95574e-20)
(0.183075 -0.0654524 -2.81847e-20)
(0.183449 -0.0656991 4.37874e-20)
(0.183967 -0.0653465 -1.21233e-20)
(0.184601 -0.0643 -2.85657e-23)
(0.185281 -0.062486 -1.54527e-21)
(0.185935 -0.059881 0)
(0.186476 -0.0564795 -4.95916e-21)
(0.186816 -0.0523105 9.41905e-21)
(0.18687 -0.0474418 -4.44776e-21)
(0.186567 -0.0419783 1.13561e-22)
(0.185858 -0.036056 -1.066e-19)
(0.184722 -0.0298322 1.06637e-19)
(0.18317 -0.0234722 -6.32266e-23)
(0.181239 -0.0171373 -1.22486e-21)
(0.17899 -0.0109725 2.04553e-21)
(0.176502 -0.00509907 -8.21335e-22)
(0.173859 0.000390645 0)
(0.171146 0.00543345 -1.91317e-23)
(0.168444 0.00999341 -8.19468e-23)
(0.16582 0.0140578 5.99884e-22)
(0.163332 0.0176323 -1.9178e-21)
(0.161022 0.0207364 1.44931e-21)
(0.158917 0.0233946 1.81029e-21)
(0.157024 0.02563 -1.85433e-21)
(0.155368 0.0274813 -7.3029e-23)
(0.154388 0.0294194 0)
(0.180805 -0.0611341 0)
(0.180306 -0.0627551 -2.91561e-20)
(0.180147 -0.0641966 3.1751e-20)
(0.180202 -0.0652606 2.8708e-20)
(0.180445 -0.0658564 -3.12702e-20)
(0.18086 -0.0659105 -1.63465e-20)
(0.18141 -0.0653634 8.22491e-22)
(0.182061 -0.0641126 1.59381e-20)
(0.182742 -0.0621094 3.24445e-21)
(0.183379 -0.0593308 0)
(0.183887 -0.055777 0)
(0.184176 -0.0514831 -3.95208e-21)
(0.184166 -0.046522 4.85072e-21)
(0.183788 -0.0410014 0)
(0.182998 -0.0350582 -1.08756e-19)
(0.181779 -0.0288477 1.08753e-19)
(0.180144 -0.0225321 0)
(0.178131 -0.0162672 9.32986e-22)
(0.175804 -0.0101925 -1.07141e-21)
(0.17324 -0.0044229 0)
(0.170522 0.000954588 0)
(0.167736 0.00588181 1.27022e-22)
(0.164959 0.0103269 -9.91082e-22)
(0.16226 0.0142803 -2.66124e-22)
(0.159694 0.0177503 1.15862e-21)
(0.157304 0.020758 3.13314e-21)
(0.155115 0.0233291 -3.31877e-21)
(0.153138 0.025488 -3.04356e-21)
(0.151398 0.0272762 3.1153e-21)
(0.150327 0.0291579 0)
(0.177584 -0.062188 0)
(0.177113 -0.0636057 0)
(0.177012 -0.0648721 0)
(0.177123 -0.0657523 -3.07027e-20)
(0.177417 -0.0661554 1.51844e-20)
(0.177867 -0.0660167 1.81272e-20)
(0.178448 -0.0652641 1.93265e-21)
(0.179111 -0.0638082 1.40499e-20)
(0.179787 -0.061614 -1.15046e-21)
(0.180402 -0.0586603 -1.32395e-20)
(0.180869 -0.054954 -7.13067e-22)
(0.181103 -0.0505367 -1.26231e-21)
(0.181025 -0.0454856 -2.53918e-21)
(0.180572 -0.0399112 1.89227e-21)
(0.179703 -0.0339506 -1.09309e-19)
(0.178405 -0.0277571 1.09316e-19)
(0.176692 -0.0214889 6.94831e-22)
(0.174607 -0.0152964 -5.22278e-22)
(0.172212 -0.0093132 1.182e-22)
(0.169583 -0.00364834 -1.84723e-23)
(0.166804 0.00161674 9.69526e-22)
(0.163958 0.00642847 6.27156e-22)
(0.16112 0.0107587 -1.4688e-21)
(0.158358 0.0146008 3.04234e-22)
(0.155726 0.0179651 -1.97278e-21)
(0.153267 0.0208742 -2.86926e-21)
(0.151006 0.0233546 4.9442e-21)
(0.148952 0.0254318 0)
(0.147136 0.0271502 0)
(0.145978 0.0289645 0)
(0.173917 -0.063126 -3.57938e-20)
(0.17348 -0.0643407 3.77311e-20)
(0.17344 -0.0654311 0)
(0.173608 -0.0661248 -1.74528e-20)
(0.173951 -0.0663316 1.98142e-20)
(0.174437 -0.0659947 1.63593e-20)
(0.175044 -0.0650283 -2.08192e-20)
(0.175714 -0.0633668 0)
(0.17638 -0.0609794 -1.79158e-21)
(0.176966 -0.0578504 0)
(0.177388 -0.0539935 1.29555e-24)
(0.177562 -0.0494562 7.46767e-24)
(0.177415 -0.0443201 5.54359e-22)
(0.176886 -0.0386981 2.27619e-22)
(0.17594 -0.0327266 -1.08223e-19)
(0.174567 -0.0265566 1.08206e-19)
(0.172785 -0.0203416 -8.58127e-23)
(0.170637 -0.0142266 -9.01523e-23)
(0.168184 -0.00833873 -4.44894e-23)
(0.165504 -0.00278124 -4.778e-23)
(0.162677 0.00236981 0)
(0.159785 0.00706524 -2.15228e-22)
(0.1569 0.0112803 0)
(0.154088 0.0150109 2.33628e-21)
(0.151404 0.018269 -2.91219e-21)
(0.148887 0.0210783 -2.97176e-21)
(0.146564 0.0234659 3.25917e-21)
(0.144444 0.0254581 0)
(0.142559 0.0271021 -4.2963e-21)
(0.141321 0.0288413 4.75346e-21)
(0.169758 -0.0639325 0)
(0.169363 -0.0649428 7.89197e-23)
(0.169387 -0.0658541 4.01706e-20)
(0.169616 -0.0663563 -3.83666e-20)
(0.170004 -0.0663631 2.32496e-21)
(0.170528 -0.0658177 -4.47484e-21)
(0.171156 -0.0646324 2.13341e-21)
(0.171829 -0.0627642 0)
(0.17248 -0.0601829 0)
(0.173033 -0.0568801 0)
(0.173405 -0.0528764 7.71912e-22)
(0.173517 -0.0482253 -4.24179e-21)
(0.173298 -0.0430124 6.69544e-21)
(0.172694 -0.0373518 -2.95278e-21)
(0.171674 -0.0313793 -1.04219e-19)
(0.170232 -0.0252425 1.05379e-19)
(0.168389 -0.0190897 -7.26393e-22)
(0.166187 -0.0130598 5.167e-22)
(0.16369 -0.00727365 -9.12529e-23)
(0.160972 -0.00182831 6.97507e-23)
(0.158111 0.0032054 1.79559e-22)
(0.155186 0.00778249 0)
(0.152269 0.0118814 0)
(0.149422 0.0155 4.41111e-22)
(0.146698 0.0186518 -1.05984e-21)
(0.144137 0.021361 6.04764e-22)
(0.141762 0.0236548 8.79666e-21)
(0.139586 0.0255605 -7.98745e-21)
(0.137642 0.0271274 1.13687e-22)
(0.13633 0.0287866 0)
(0.165057 -0.0645843 -4.03034e-20)
(0.16471 -0.0653912 3.73768e-20)
(0.164802 -0.0661162 1.75486e-20)
(0.165094 -0.0664192 -2.04037e-20)
(0.165531 -0.0662216 -2.13801e-20)
(0.166093 -0.0654544 2.19041e-20)
(0.166739 -0.0640499 1.7538e-20)
(0.167411 -0.061973 -1.57024e-20)
(0.168043 -0.0591985 8.52951e-21)
(0.168557 -0.0557256 -7.64085e-21)
(0.168875 -0.0515819 6.71278e-21)
(0.168921 -0.0468263 -3.47241e-21)
(0.16863 -0.0415479 -2.24259e-21)
(0.167953 -0.0358616 1.08833e-22)
(0.166864 -0.0299015 -9.95049e-20)
(0.16536 -0.0238109 9.94808e-20)
(0.163464 -0.0177326 -2.01429e-23)
(0.16122 -0.0117988 1.62902e-22)
(0.158691 -0.00612349 7.99705e-22)
(0.155949 -0.000797485 -9.41403e-22)
(0.153069 0.00411361 1.74405e-21)
(0.150127 0.00856885 -1.60464e-21)
(0.147192 0.0125495 5.68871e-21)
(0.144324 0.0160552 -4.92778e-21)
(0.141574 0.0191004 -4.90434e-21)
(0.138981 0.0217096 4.77098e-21)
(0.136567 0.0239098 5.58048e-21)
(0.134345 0.0257285 -6.06774e-21)
(0.132351 0.0272171 -9.2668e-21)
(0.130972 0.0287937 8.77466e-21)
(0.159755 -0.0650532 -2.68881e-21)
(0.159462 -0.0656563 -4.23787e-20)
(0.15963 -0.0661846 4.66324e-20)
(0.159988 -0.0662807 0)
(0.160477 -0.0658683 -2.63148e-21)
(0.161075 -0.0648717 0)
(0.161737 -0.0632466 -2.43311e-21)
(0.162405 -0.0609608 1.72501e-20)
(0.163012 -0.0579963 -1.85523e-20)
(0.163484 -0.0543599 9.41946e-22)
(0.163744 -0.0500862 -1.65049e-21)
(0.163723 -0.0452393 -6.96043e-22)
(0.16336 -0.0399108 -2.9049e-22)
(0.162613 -0.0342158 -1.12966e-22)
(0.161459 -0.0282855 -9.13159e-20)
(0.1599 -0.0222585 9.13042e-20)
(0.157962 -0.0162708 2.0908e-23)
(0.15569 -0.0104474 -1.08462e-23)
(0.153143 -0.00489518 1.75729e-22)
(0.150391 0.000301571 0)
(0.147508 0.00508248 3.27378e-22)
(0.144565 0.00941053 5.52389e-21)
(0.141628 0.0132695 -5.57893e-21)
(0.138755 0.0166605 -8.94565e-22)
(0.135994 0.0195986 0)
(0.133381 0.0221079 -9.39226e-22)
(0.13094 0.024215 0)
(0.128683 0.0259474 -1.23003e-20)
(0.126648 0.0273577 1.2877e-20)
(0.12521 0.0288509 -6.8807e-22)
(0.153782 -0.0653033 -4.26391e-20)
(0.153553 -0.0656956 4.47772e-20)
(0.153804 -0.0660163 1.07392e-22)
(0.154231 -0.065899 2.47581e-20)
(0.154777 -0.0652569 -4.13059e-20)
(0.15541 -0.0640287 2.46813e-20)
(0.156085 -0.0621821 2.50458e-21)
(0.156746 -0.0596894 4.58795e-23)
(0.157325 -0.0565409 0)
(0.157749 -0.0527515 -9.72752e-22)
(0.15795 -0.0483622 -4.52356e-21)
(0.15786 -0.0434417 7.0156e-21)
(0.157426 -0.0380834 2.7969e-22)
(0.156611 -0.0324015 -6.01676e-22)
(0.155399 -0.0265235 -7.9414e-20)
(0.153795 -0.0205819 8.02733e-20)
(0.151827 -0.0147054 -1.43215e-22)
(0.149539 -0.0090109 7.17431e-23)
(0.14699 -0.00359764 -2.26117e-21)
(0.144246 0.0014567 2.0556e-21)
(0.141377 0.00609712 -3.38081e-22)
(0.13845 0.0102904 0)
(0.135528 0.0140225 -8.66485e-22)
(0.132666 0.0172959 9.20833e-22)
(0.129908 0.0201254 -7.29052e-21)
(0.12729 0.0225349 1.76551e-20)
(0.124834 0.0245496 -7.1187e-21)
(0.122552 0.0261968 1.7309e-22)
(0.120486 0.0275297 -1.38425e-20)
(0.118997 0.0289402 1.47084e-20)
(0.147053 -0.0652832 0)
(0.146904 -0.0654551 0)
(0.147243 -0.0655576 -2.65768e-20)
(0.147747 -0.065216 2.15139e-20)
(0.148352 -0.0643348 0)
(0.14902 -0.0628744 -2.76914e-21)
(0.149707 -0.0608069 -2.7013e-21)
(0.150356 -0.0581125 -2.45948e-21)
(0.150901 -0.0547905 0)
(0.151275 -0.0508632 0)
(0.151412 -0.0463782 -8.73959e-22)
(0.151252 -0.0414076 2.92333e-21)
(0.150749 -0.0360458 -3.15453e-21)
(0.149872 -0.0304049 -1.05325e-22)
(0.14861 -0.0246074 -6.55384e-20)
(0.146972 -0.0187787 6.55319e-20)
(0.144987 -0.0130391 -5.42325e-24)
(0.142699 -0.00749679 7.74235e-22)
(0.140165 -0.00224284 -9.49208e-22)
(0.137447 0.00265209 0)
(0.134611 0.00713835 0)
(0.13172 0.0111864 0)
(0.128831 0.0147843 0)
(0.125997 0.0179352 -1.3202e-21)
(0.123258 0.0206538 -1.15476e-21)
(0.12065 0.0229626 0)
(0.118192 0.0248856 -1.1296e-20)
(0.115898 0.0264489 8.69653e-21)
(0.113811 0.0277062 0)
(0.11228 0.0290356 0)
(0.139469 -0.064924 -3.20872e-21)
(0.139415 -0.0648643 0)
(0.139852 -0.0647404 0)
(0.140441 -0.0641583 0)
(0.141106 -0.0630356 0)
(0.141808 -0.0613427 0)
(0.142504 -0.0590587 2.75888e-21)
(0.143136 -0.0561729 1.31441e-21)
(0.143644 -0.0526934 -8.81047e-21)
(0.143962 -0.0486501 2.34593e-21)
(0.144032 -0.0440961 1.51232e-20)
(0.143802 -0.0391064 -9.43487e-21)
(0.143232 -0.033775 7.31077e-22)
(0.142299 -0.0282104 1.87202e-21)
(0.140996 -0.0225289 -4.69806e-20)
(0.139337 -0.0168475 4.69344e-20)
(0.137351 -0.011277 -7.73148e-22)
(0.135082 -0.00591621 -5.83975e-22)
(0.132583 -0.00084724 4.84977e-21)
(0.129912 0.00386646 -7.28763e-21)
(0.12713 0.0081807 -5.38648e-23)
(0.124296 0.0120695 4.85667e-21)
(0.121461 0.0155229 7.54471e-22)
(0.118674 0.0185442 1.34833e-21)
(0.115974 0.0211475 0)
(0.113392 0.0233538 0)
(0.110947 0.025185 0)
(0.108653 0.0266659 0)
(0.106555 0.0278494 0)
(0.104989 0.0290999 -1.31777e-21)
(0.130908 -0.064132 6.65325e-21)
(0.130965 -0.0638307 -2.65673e-20)
(0.131513 -0.0634651 2.76102e-20)
(0.132191 -0.0626341 0)
(0.132917 -0.0612699 -2.50593e-20)
(0.133651 -0.0593484 2.89525e-20)
(0.134351 -0.056858 -2.37539e-20)
(0.134962 -0.053798 2.0112e-20)
(0.135425 -0.0501852 0)
(0.135683 -0.0460567 6.77732e-21)
(0.135684 -0.0414701 -2.40915e-21)
(0.135384 -0.0365019 -9.07767e-21)
(0.134751 -0.0312444 2.81129e-21)
(0.13377 -0.0258011 4.94236e-22)
(0.132438 -0.0202802 -2.43447e-20)
(0.130773 -0.0147893 2.40275e-20)
(0.128805 -0.00942838 -2.34604e-22)
(0.126576 -0.00428575 -1.55699e-21)
(0.124134 0.000565746 6.14006e-21)
(0.121535 0.00507029 1.01912e-21)
(0.118832 0.00918926 -5.84742e-21)
(0.116079 0.0129002 -8.41668e-22)
(0.113322 0.0161946 -1.5319e-20)
(0.110605 0.019076 1.23907e-20)
(0.107963 0.0215572 -1.23925e-20)
(0.105427 0.0236571 1.38927e-20)
(0.103012 0.0253952 0)
(0.100733 0.0267942 -1.36642e-20)
(0.0986357 0.0279057 1.32294e-20)
(0.0970447 0.0290796 2.9243e-21)
(0.121214 -0.0627748 2.15343e-20)
(0.121402 -0.0622208 -2.80231e-20)
(0.122072 -0.0615999 -2.44557e-20)
(0.122841 -0.0605197 2.9121e-20)
(0.123627 -0.0589174 2.98017e-20)
(0.124389 -0.0567779 -5.8528e-20)
(0.125085 -0.0541003 4.02661e-20)
(0.125666 -0.0508937 -1.05064e-20)
(0.126077 -0.0471833 0)
(0.126269 -0.0430127 -7.96578e-21)
(0.126199 -0.0384427 7.20182e-21)
(0.12583 -0.0335499 -3.5108e-22)
(0.12514 -0.0284229 -8.03057e-22)
(0.124121 -0.0231584 1.00225e-21)
(0.122776 -0.0178551 4.34522e-21)
(0.121125 -0.0126091 -4.34786e-21)
(0.119197 -0.00750868 -9.72275e-22)
(0.117033 -0.00263072 7.62101e-22)
(0.114677 0.0019619 -3.40678e-22)
(0.112178 0.00622132 -7.86218e-21)
(0.109584 0.0101146 7.17374e-21)
(0.10694 0.0136226 1.84873e-21)
(0.104289 0.0167382 8.93988e-21)
(0.101669 0.0194645 -2.23255e-20)
(0.0991113 0.0218128 2.86707e-20)
(0.0966424 0.0237995 -1.40103e-20)
(0.0942779 0.0254409 -1.6608e-20)
(0.0920315 0.0267573 1.60765e-20)
(0.08995 0.0277979 1.44651e-20)
(0.0883447 0.0288966 -1.82412e-20)
(0.110187 -0.0606583 3.41009e-20)
(0.110527 -0.0598391 4.02119e-21)
(0.111321 -0.0589629 -4.98232e-21)
(0.112181 -0.0576378 -3.07373e-20)
(0.113021 -0.0558102 -3.50099e-21)
(0.113801 -0.0534755 5.08116e-21)
(0.114484 -0.0506439 6.55169e-23)
(0.115023 -0.0473342 0)
(0.115373 -0.0435792 0)
(0.115493 -0.0394275 -8.02268e-21)
(0.115348 -0.0349416 9.09131e-21)
(0.114914 -0.0301962 3.53583e-22)
(0.114177 -0.0252741 0)
(0.113133 -0.0202631 7.55287e-23)
(0.111795 -0.0152504 3.87776e-20)
(0.110182 -0.0103191 -3.86418e-20)
(0.108324 -0.00554442 -4.24132e-22)
(0.106256 -0.000990731 0)
(0.10402 0.00328963 3.43105e-22)
(0.101656 0.00725706 -6.77078e-21)
(0.099206 0.0108843 6.52307e-21)
(0.0967078 0.0141555 -1.00102e-21)
(0.0941974 0.0170646 0)
(0.0917071 0.019614 1.80198e-22)
(0.0892646 0.0218128 3.52544e-21)
(0.0868925 0.0236744 -2.2374e-21)
(0.0846044 0.0252118 1.92981e-20)
(0.0824138 0.0264418 -1.86591e-23)
(0.0803675 0.0274104 1.42699e-21)
(0.0787622 0.0284336 -1.54542e-20)
(0.0975552 -0.0574836 -3.2407e-20)
(0.098059 -0.0564051 2.77531e-20)
(0.0989747 -0.0552807 0)
(0.0999157 -0.0537284 -2.81876e-20)
(0.100796 -0.0517058 3.31982e-20)
(0.101579 -0.0492197 -1.52261e-20)
(0.10223 -0.0462906 2.4704e-20)
(0.102713 -0.0429461 -1.12366e-20)
(0.102991 -0.0392256 0)
(0.103032 -0.0351805 0)
(0.102813 -0.030873 3.54197e-21)
(0.10232 -0.0263731 -3.46855e-21)
(0.101548 -0.0217557 0)
(0.100502 -0.017097 5.03774e-23)
(0.0991972 -0.0124707 8.02576e-20)
(0.097655 -0.00794522 -8.02946e-20)
(0.0959035 -0.00358107 1.18113e-22)
(0.0939744 0.000570543 0)
(0.0919011 0.00446849 3.43656e-21)
(0.0897174 0.0080817 -3.29651e-21)
(0.0874563 0.0113886 0)
(0.0851487 0.0143764 0)
(0.082823 0.0170398 1.23039e-20)
(0.0805053 0.01938 -2.29589e-20)
(0.0782186 0.0214036 9.5114e-21)
(0.0759816 0.0231204 -2.09881e-20)
(0.0738056 0.0245396 2.32605e-20)
(0.071703 0.0256742 0)
(0.06972 0.0265656 -2.22751e-20)
(0.068136 0.0275086 1.76462e-20)
(0.0829317 -0.052777 -3.23326e-20)
(0.0835966 -0.0514655 3.14451e-20)
(0.0846152 -0.0501237 -3.30138e-20)
(0.0856119 -0.0483913 5.09735e-22)
(0.0865048 -0.0462382 9.01095e-22)
(0.0872618 -0.0436816 4.68746e-20)
(0.0878579 -0.0407512 -1.44109e-20)
(0.088265 -0.0374817 -1.49977e-21)
(0.0884571 -0.0339164 9.66167e-21)
(0.0884148 -0.0301072 -1.77386e-20)
(0.0881265 -0.0261129 7.99735e-21)
(0.0875884 -0.0219961 2.21499e-21)
(0.0868052 -0.0178205 -2.34152e-21)
(0.0857885 -0.0136482 3.61863e-22)
(0.0845564 -0.00953704 1.2986e-19)
(0.0831309 -0.00553899 -1.29281e-19)
(0.0815369 -0.00169875 -2.1407e-21)
(0.0798005 0.00194657 5.52752e-21)
(0.0779476 0.00536744 -3.41756e-21)
(0.0760033 0.00854143 -1.03422e-20)
(0.0739916 0.0114527 2.16036e-20)
(0.0719345 0.0140911 -1.10948e-20)
(0.069853 0.0164518 -1.41022e-21)