/*--------------------------------*- C++ -*----------------------------------*\
  =========                 |
  \\      /  F ield         | OpenFOAM: The Open Source CFD Toolbox
   \\    /   O peration     | Website:  https://openfoam.org
    \\  /    A nd           | Version:  12
     \\/     M anipulation  |
\*---------------------------------------------------------------------------*/
FoamFile
{
    format      ascii;
    class       volSymmTensorField;
    location    "400";
    object      UPrime2Mean;
}
// * * * * * * * * * * * * * * * * * * * * * * * * * * * * * * * * * * * * * //

dimensions      [0 2 -2 0 0 0 0];

internalField   nonuniform List<symmTensor> 
6750
(
(1.79216e-10 2.49124e-09 0 6.79978e-08 0 0)
(4.2365e-09 4.86078e-08 0 9.58696e-07 0 0)
(1.37464e-08 1.6451e-07 0 3.07781e-06 0 0)
(2.55346e-08 3.35063e-07 0 6.45499e-06 0 0)
(6.04375e-08 7.16422e-07 0 1.09812e-05 0 0)
(1.5692e-11 2.52412e-10 0 5.12583e-08 0 0)
(7.57375e-10 1.9686e-08 0 8.00664e-07 0 0)
(5.23822e-09 9.84609e-08 0 2.62685e-06 0 0)
(1.80488e-08 2.75671e-07 0 5.50298e-06 0 0)
(4.80672e-08 6.01336e-07 0 9.24656e-06 0 0)
(1.29595e-11 2.76522e-10 0 4.66028e-08 0 0)
(5.86578e-10 1.91619e-08 0 7.28739e-07 0 0)
(5.28282e-09 1.04315e-07 0 2.35983e-06 0 0)
(2.06628e-08 2.97701e-07 0 4.83601e-06 0 0)
(5.38618e-08 6.16886e-07 0 7.89124e-06 0 0)
(1.10696e-11 2.54163e-10 0 4.07706e-08 0 0)
(8.35544e-10 2.25059e-08 0 6.42924e-07 0 0)
(7.14383e-09 1.18158e-07 0 2.05997e-06 0 0)
(2.62524e-08 3.2201e-07 0 4.16202e-06 0 0)
(6.34292e-08 6.34376e-07 0 6.69653e-06 0 0)
(8.49772e-12 1.96893e-10 0 3.42554e-08 0 0)
(1.11539e-09 2.4428e-08 0 5.49627e-07 0 0)
(9.23964e-09 1.25969e-07 0 1.75498e-06 0 0)
(3.23567e-08 3.33873e-07 0 3.5216e-06 0 0)
(7.45326e-08 6.40222e-07 0 5.63057e-06 0 0)
(5.8497e-12 1.12804e-10 0 2.78603e-08 0 0)
(1.33119e-09 2.45058e-08 0 4.56458e-07 0 0)
(1.11603e-08 1.27114e-07 0 1.45908e-06 0 0)
(3.84684e-08 3.3389e-07 0 2.92025e-06 0 0)
(8.70369e-08 6.34006e-07 0 4.65637e-06 0 0)
(4.65581e-12 2.82339e-11 0 2.19963e-08 0 0)
(1.49312e-09 2.33739e-08 0 3.6784e-07 0 0)
(1.29599e-08 1.23525e-07 0 1.17962e-06 0 0)
(4.48108e-08 3.24916e-07 0 2.35987e-06 0 0)
(1.01257e-07 6.16408e-07 0 3.75888e-06 0 0)
(5.7423e-12 -3.87417e-11 0 1.68179e-08 0 0)
(1.63199e-09 2.15538e-08 0 2.86327e-07 0 0)
(1.47457e-08 1.16529e-07 0 9.21773e-07 0 0)
(5.15283e-08 3.08245e-07 0 1.84496e-06 0 0)
(1.17118e-07 5.86462e-07 0 2.9378e-06 0 0)
(9.12195e-12 -8.22737e-11 0 1.23624e-08 0 0)
(1.766e-09 1.93076e-08 0 2.13588e-07 0 0)
(1.65419e-08 1.06693e-07 0 6.90188e-07 0 0)
(5.84896e-08 2.84077e-07 0 1.3826e-06 0 0)
(1.33985e-07 5.42637e-07 0 2.20156e-06 0 0)
(1.42332e-11 -1.03366e-10 0 8.62758e-09 0 0)
(1.89866e-09 1.67469e-08 0 1.50825e-07 0 0)
(1.82951e-08 9.42868e-08 0 4.89013e-07 0 0)
(6.53533e-08 2.52528e-07 0 9.80461e-07 0 0)
(1.50834e-07 4.84243e-07 0 1.56139e-06 0 0)
(2.01847e-11 -1.0586e-10 0 5.6011e-09 0 0)
(2.02436e-09 1.39309e-08 0 9.88689e-08 0 0)
(1.99123e-08 7.96117e-08 0 3.21521e-07 0 0)
(7.16823e-08 2.1422e-07 0 6.45181e-07 0 0)
(1.66475e-07 4.12128e-07 0 1.0276e-06 0 0)
(2.60164e-11 -9.42422e-11 0 3.26514e-09 0 0)
(2.13272e-09 1.09149e-08 0 5.81404e-08 0 0)
(2.12896e-08 6.31133e-08 0 1.89636e-07 0 0)
(7.70595e-08 1.70419e-07 0 3.80841e-07 0 0)
(1.79817e-07 3.2869e-07 0 6.06668e-07 0 0)
(3.07393e-11 -7.21197e-11 0 1.59176e-09 0 0)
(2.21068e-09 7.76812e-09 0 2.86221e-08 0 0)
(2.23363e-08 4.53821e-08 0 9.37008e-08 0 0)
(8.11602e-08 1.22862e-07 0 1.88329e-07 0 0)
(1.90051e-07 2.37411e-07 0 3.00041e-07 0 0)
(3.26961e-11 -4.13458e-11 0 5.39171e-10 0 0)
(2.23968e-09 4.57738e-09 0 9.86507e-09 0 0)
(2.29892e-08 2.70895e-08 0 3.24916e-08 0 0)
(8.3799e-08 7.35005e-08 0 6.53574e-08 0 0)
(1.96744e-07 1.4223e-07 0 1.04141e-07 0 0)
(2.86817e-11 -1.00848e-11 0 5.82253e-11 0 0)
(2.17837e-09 1.45129e-09 0 1.02588e-09 0 0)
(2.32304e-08 8.89024e-09 0 3.46428e-09 0 0)
(8.49758e-08 2.42245e-08 0 6.99971e-09 0 0)
(1.9988e-07 4.69655e-08 0 1.11737e-08 0 0)
(2.87215e-11 7.75309e-12 0 7.25965e-11 0 0)
(2.17876e-09 -1.49705e-09 0 1.09516e-09 0 0)
(2.32296e-08 -9.05093e-09 0 3.60457e-09 0 0)
(8.49732e-08 -2.45179e-08 0 7.19735e-09 0 0)
(1.99872e-07 -4.73884e-08 0 1.14167e-08 0 0)
(3.26407e-11 3.98181e-11 0 5.82432e-10 0 0)
(2.23872e-09 -4.6234e-09 0 1.00792e-08 0 0)
(2.29858e-08 -2.72485e-08 0 3.29189e-08 0 0)
(8.37895e-08 -7.37891e-08 0 6.59574e-08 0 0)
(1.96719e-07 -1.42642e-07 0 1.04877e-07 0 0)
(3.062e-11 7.12807e-11 0 1.66435e-09 0 0)
(2.20875e-09 -7.81164e-09 0 2.89853e-08 0 0)
(2.233e-08 -4.5535e-08 0 9.44233e-08 0 0)
(8.11434e-08 -1.23138e-07 0 1.89341e-07 0 0)
(1.9001e-07 -2.378e-07 0 3.01281e-07 0 0)
(2.58727e-11 9.42867e-11 0 3.36552e-09 0 0)
(2.13009e-09 -1.0954e-08 0 5.86542e-08 0 0)
(2.12812e-08 -6.32562e-08 0 1.90657e-07 0 0)
(7.70373e-08 -1.70676e-07 0 3.82267e-07 0 0)
(1.79761e-07 -3.29044e-07 0 6.0841e-07 0 0)
(2.0054e-11 1.06982e-10 0 5.72646e-09 0 0)
(2.02143e-09 -1.39643e-08 0 9.95321e-08 0 0)
(1.9903e-08 -7.97424e-08 0 3.22838e-07 0 0)
(7.16572e-08 -2.14454e-07 0 6.47013e-07 0 0)
(1.66407e-07 -4.12435e-07 0 1.02983e-06 0 0)
(1.41546e-11 1.05613e-10 0 8.77405e-09 0 0)
(1.89578e-09 -1.67738e-08 0 1.51635e-07 0 0)
(1.82859e-08 -9.44043e-08 0 4.90623e-07 0 0)
(6.53271e-08 -2.52735e-07 0 9.82689e-07 0 0)
(1.50755e-07 -4.84492e-07 0 1.56409e-06 0 0)
(9.13462e-12 8.56034e-11 0 1.25253e-08 0 0)
(1.76314e-09 -1.93259e-08 0 2.14538e-07 0 0)
(1.65315e-08 -1.06791e-07 0 6.92082e-07 0 0)
(5.84618e-08 -2.8425e-07 0 1.38518e-06 0 0)
(1.339e-07 -5.42817e-07 0 2.20463e-06 0 0)
(5.86954e-12 4.31016e-11 0 1.69911e-08 0 0)
(1.62857e-09 -2.15572e-08 0 2.87402e-07 0 0)
(1.47306e-08 -1.16587e-07 0 9.23934e-07 0 0)
(5.14911e-08 -3.08354e-07 0 1.84788e-06 0 0)
(1.1703e-07 -5.86571e-07 0 2.94118e-06 0 0)
(4.8891e-12 -2.31775e-11 0 2.21731e-08 0 0)
(1.48943e-09 -2.33617e-08 0 3.69016e-07 0 0)
(1.2942e-08 -1.23542e-07 0 1.18203e-06 0 0)
(4.47729e-08 -3.24986e-07 0 2.36322e-06 0 0)
(1.01171e-07 -6.16496e-07 0 3.76299e-06 0 0)
(6.16363e-12 -1.07767e-10 0 2.80354e-08 0 0)
(1.32815e-09 -2.4485e-08 0 4.57712e-07 0 0)
(1.11457e-08 -1.27119e-07 0 1.46172e-06 0 0)
(3.84433e-08 -3.33979e-07 0 2.92403e-06 0 0)
(8.69676e-08 -6.34122e-07 0 4.66119e-06 0 0)
(8.84975e-12 -1.9223e-10 0 3.44255e-08 0 0)
(1.11293e-09 -2.43999e-08 0 5.50946e-07 0 0)
(9.22756e-09 -1.25962e-07 0 1.75788e-06 0 0)
(3.23367e-08 -3.33965e-07 0 3.52595e-06 0 0)
(7.44691e-08 -6.40338e-07 0 5.63632e-06 0 0)
(1.14004e-11 -2.50301e-10 0 4.09335e-08 0 0)
(8.33628e-10 -2.2474e-08 0 6.44291e-07 0 0)
(7.13421e-09 -1.18146e-07 0 2.06312e-06 0 0)
(2.62376e-08 -3.22124e-07 0 4.16706e-06 0 0)
(6.337e-08 -6.34477e-07 0 6.70341e-06 0 0)
(1.319e-11 -2.73531e-10 0 4.67576e-08 0 0)
(5.84664e-10 -1.91271e-08 0 7.30132e-07 0 0)
(5.27409e-09 -1.04296e-07 0 2.36322e-06 0 0)
(2.06457e-08 -2.97789e-07 0 4.84174e-06 0 0)
(5.37993e-08 -6.16871e-07 0 7.89949e-06 0 0)
(1.57779e-11 -2.50758e-10 0 5.14032e-08 0 0)
(7.54667e-10 -1.96556e-08 0 8.02054e-07 0 0)
(5.22837e-09 -9.8439e-08 0 2.63041e-06 0 0)
(1.80279e-08 -2.75718e-07 0 5.50938e-06 0 0)
(4.80052e-08 -6.01115e-07 0 9.25631e-06 0 0)
(1.7886e-10 -2.48965e-09 0 6.81317e-08 0 0)
(4.22994e-09 -4.85721e-08 0 9.60021e-07 0 0)
(1.37297e-08 -1.6444e-07 0 3.08138e-06 0 0)
(2.55052e-08 -3.3489e-07 0 6.46172e-06 0 0)
(6.0366e-08 -7.15782e-07 0 1.09919e-05 0 0)
(6.4033e-07 3.96042e-06 0 2.67182e-05 0 0)
(1.49185e-06 7.27398e-06 0 3.77487e-05 0 0)
(2.62263e-06 1.11494e-05 0 4.9867e-05 0 0)
(3.845e-06 1.51558e-05 -3.60725e-25 6.24981e-05 -9.56681e-25 7.03188e-43)
(5.12275e-06 1.91879e-05 0 7.49195e-05 0 0)
(6.42109e-06 2.31169e-05 0 8.65208e-05 0 0)
(7.69413e-06 2.67858e-05 3.68497e-23 9.6741e-05 9.80035e-23 2.71832e-39)
(8.9093e-06 3.00552e-05 -4.06595e-23 0.000105024 -1.07044e-22 2.76617e-39)
(1.00203e-05 3.27686e-05 -3.44787e-25 0.000110815 -9.02021e-25 1.55578e-43)
(1.1081e-05 3.49897e-05 -2.39467e-23 0.000114046 -6.20733e-23 5.87968e-40)
(1.20374e-05 3.65567e-05 4.84166e-26 0.000114284 -4.10753e-26 1.18255e-42)
(1.29098e-05 3.73645e-05 1.2717e-25 0.000110937 1.92838e-25 1.395e-42)
(1.37103e-05 3.7481e-05 1.41682e-23 0.000104604 3.43444e-23 1.40083e-40)
(1.44567e-05 3.69325e-05 1.45139e-23 9.57393e-05 3.41148e-23 1.14732e-40)
(1.51688e-05 3.57581e-05 3.4901e-23 8.50029e-05 7.90189e-23 5.16297e-40)
(1.58659e-05 3.39975e-05 -3.59e-23 7.31881e-05 -7.78388e-23 5.16395e-40)
(1.65708e-05 3.16911e-05 1.48165e-23 6.11255e-05 3.05124e-23 6.93931e-41)
(1.73071e-05 2.88723e-05 1.41755e-23 4.95777e-05 2.74756e-23 5.01995e-41)
(1.81005e-05 2.55812e-05 -7.58526e-25 3.91945e-05 -1.39904e-24 1.48566e-42)
(1.89839e-05 2.1872e-05 -8.19289e-25 3.04541e-05 -1.35764e-24 1.28809e-42)
(2.00226e-05 1.78314e-05 -2.91298e-23 2.36295e-05 -4.36758e-23 1.7708e-40)
(2.12245e-05 1.34546e-05 4.48286e-25 1.86436e-05 5.8657e-25 3.5757e-44)
(2.25538e-05 8.83328e-06 -5.48896e-23 1.55283e-05 -6.20379e-23 4.67063e-40)
(2.40124e-05 4.07898e-06 5.58235e-23 1.41044e-05 5.19579e-23 4.58831e-40)
(2.55855e-05 -7.02403e-07 0 1.409e-05 0 0)
(2.7239e-05 -5.41141e-06 0 1.51579e-05 0 0)
(2.89302e-05 -9.95646e-06 8.58184e-25 1.69793e-05 2.91133e-25 7.57584e-44)
(3.06365e-05 -1.42459e-05 0 1.92513e-05 0 0)
(3.24027e-05 -1.81663e-05 0 2.16909e-05 0 0)
(3.40259e-05 -2.15967e-05 0 2.39877e-05 0 0)
(1.0013e-06 5.4572e-06 0 3.20688e-05 0 0)
(1.96365e-06 9.02075e-06 0 4.39125e-05 0 0)
(3.07992e-06 1.27915e-05 0 5.58212e-05 0 0)
(4.27208e-06 1.66249e-05 3.60309e-25 6.76647e-05 9.49881e-25 6.2549e-43)
(5.52741e-06 2.04669e-05 0 7.90049e-05 0 0)
(6.80682e-06 2.41869e-05 0 8.93788e-05 0 0)
(8.07121e-06 2.76466e-05 -3.53479e-23 9.83081e-05 -9.20778e-23 2.34991e-39)
(9.2961e-06 3.07293e-05 3.94836e-23 0.00010532 1.01233e-22 2.46092e-39)
(1.0444e-05 3.33065e-05 3.31602e-25 0.000109969 8.41602e-25 1.3714e-43)
(1.1572e-05 3.54663e-05 0 0.000112352 0 0)
(1.26156e-05 3.69908e-05 0 0.000111821 0 0)
(1.36165e-05 3.78614e-05 2.55032e-23 0.00010817 6.07202e-23 4.32858e-40)
(1.45596e-05 3.80935e-05 -2.68079e-23 0.000101915 -6.18279e-23 4.35585e-40)
(1.54566e-05 3.7702e-05 0 9.34671e-05 0 0)
(1.63148e-05 3.67058e-05 9.78731e-23 8.34031e-05 2.1061e-22 3.80984e-39)
(1.71403e-05 3.51261e-05 -1.00886e-22 7.23985e-05 -2.08202e-22 3.80743e-39)
(1.79438e-05 3.29895e-05 0 6.11511e-05 0 0)
(1.87423e-05 3.03286e-05 -2.87761e-23 5.03178e-05 -5.35114e-23 2.1233e-40)
(1.95593e-05 2.71835e-05 2.94485e-23 4.04517e-05 5.1382e-23 2.14427e-40)
(2.04288e-05 2.36127e-05 0 3.19786e-05 0 0)
(2.1379e-05 1.96741e-05 0 2.51541e-05 0 0)
(2.24482e-05 1.54099e-05 -4.35797e-25 1.99909e-05 -5.73134e-25 3.14644e-44)
(2.36461e-05 1.09134e-05 5.42731e-23 1.65217e-05 6.15042e-23 4.22048e-40)
(2.49524e-05 6.26845e-06 -5.58859e-23 1.46274e-05 -5.3306e-23 4.29081e-40)
(2.63613e-05 1.57565e-06 0 1.4098e-05 0 0)
(2.78514e-05 -3.07074e-06 0 1.46681e-05 0 0)
(2.93853e-05 -7.58778e-06 -8.17547e-25 1.60534e-05 -3.52162e-25 6.72045e-44)
(3.09262e-05 -1.19029e-05 0 1.7981e-05 0 0)
(3.25079e-05 -1.59497e-05 0 2.02091e-05 0 0)
(3.40764e-05 -1.97799e-05 0 2.25874e-05 0 0)
(1.39213e-06 6.87189e-06 0 3.6269e-05 0 0)
(2.33804e-06 1.02676e-05 0 4.76387e-05 0 0)
(3.44304e-06 1.38983e-05 0 5.88749e-05 0 0)
(4.65109e-06 1.7647e-05 -2.4418e-23 6.99781e-05 -6.35354e-23 2.53895e-39)
(5.93125e-06 2.14087e-05 2.838e-23 8.05329e-05 7.26843e-23 2.59885e-39)
(7.2463e-06 2.50513e-05 -3.35961e-23 9.00829e-05 -8.54388e-23 2.60738e-39)
(8.5707e-06 2.84589e-05 3.75752e-23 9.8173e-05 9.37288e-23 2.65666e-39)
(9.88646e-06 3.15273e-05 -6.56379e-25 0.000104379 -1.61384e-24 6.17233e-43)
(1.11706e-05 3.41575e-05 0 0.000108345 0 0)
(1.24739e-05 3.64273e-05 0 0.000110214 0 0)
(1.37325e-05 3.80898e-05 8.15993e-25 0.000109233 1.85411e-24 5.11648e-43)
(1.49901e-05 3.91661e-05 0 0.00010548 0 0)
(1.6211e-05 3.96262e-05 0 9.93729e-05 0 0)
(1.73953e-05 3.94659e-05 2.38793e-25 9.12966e-05 4.88704e-25 2.4828e-44)
(1.85319e-05 3.86799e-05 1.76422e-22 8.17738e-05 3.47611e-22 1.0837e-38)
(1.96082e-05 3.727e-05 -1.8258e-22 7.14032e-05 -3.44538e-22 1.08368e-38)
(2.06179e-05 3.52494e-05 -2.57351e-25 6.07988e-05 -4.63789e-25 1.7852e-44)
(2.15652e-05 3.26455e-05 0 5.0535e-05 0 0)
(2.24673e-05 2.95022e-05 0 4.11022e-05 0 0)
(2.33562e-05 2.58819e-05 -1.03295e-24 3.2877e-05 -1.54523e-24 1.9511e-43)
(2.42696e-05 2.1858e-05 0 2.61004e-05 0 0)
(2.52444e-05 1.75156e-05 0 2.08915e-05 0 0)
(2.6301e-05 1.29297e-05 9.8609e-25 1.72303e-05 1.07563e-24 1.26734e-43)
(2.74429e-05 8.19691e-06 6.19868e-23 1.50402e-05 5.75573e-23 4.42689e-40)
(2.8671e-05 3.41832e-06 -6.25026e-23 1.41601e-05 -4.79619e-23 4.3448e-40)
(2.9975e-05 -1.3114e-06 6.21928e-23 1.43706e-05 3.76129e-23 3.73835e-40)
(3.13335e-05 -5.908e-06 -6.2848e-23 1.54244e-05 -2.78871e-23 3.6455e-40)
(3.27152e-05 -1.02972e-05 0 1.70706e-05 0 0)
(3.41014e-05 -1.44128e-05 0 1.90763e-05 0 0)
(3.52543e-05 -1.83723e-05 0 2.13668e-05 0 0)
(1.77834e-06 8.21226e-06 0 4.02309e-05 0 0)
(2.7121e-06 1.14854e-05 3.65354e-23 5.11484e-05 9.72404e-23 1.17765e-38)
(3.84639e-06 1.50739e-05 -2.23776e-23 6.1801e-05 -5.76907e-23 3.10784e-39)
(5.10341e-06 1.87966e-05 -5.47671e-23 7.22022e-05 -1.39442e-22 1.22509e-38)
(6.44514e-06 2.2527e-05 6.38478e-23 8.19562e-05 1.59464e-22 1.21031e-38)
(7.84753e-06 2.61545e-05 -3.58672e-23 9.06414e-05 -8.75128e-23 2.93967e-39)
(9.29816e-06 2.95837e-05 0 9.78494e-05 0 0)
(1.07791e-05 3.27113e-05 -1.38857e-24 0.000103214 -3.20593e-24 2.61283e-42)
(1.23073e-05 3.55063e-05 0 0.000106519 0 0)
(1.38772e-05 3.79403e-05 0 0.000107804 0 0)
(1.54722e-05 3.98255e-05 -3.09091e-23 0.000106397 -6.46657e-23 6.21332e-40)
(1.71056e-05 4.11668e-05 3.12829e-23 0.000102557 6.25649e-23 5.54108e-40)
(1.87317e-05 4.19054e-05 0 9.66082e-05 0 0)
(2.03323e-05 4.20152e-05 -2.73837e-25 8.89166e-05 -5.05528e-25 2.7366e-44)
(2.18724e-05 4.1467e-05 2.71982e-22 7.99513e-05 4.81673e-22 2.17438e-38)
(2.33159e-05 4.02429e-05 -2.8263e-22 7.02362e-05 -4.78543e-22 2.17428e-38)
(2.46348e-05 3.83423e-05 2.98173e-25 6.0302e-05 4.82641e-25 1.96766e-44)
(2.58175e-05 3.57868e-05 0 5.06445e-05 0 0)
(2.68724e-05 3.26223e-05 3.8222e-23 4.16912e-05 5.55855e-23 2.38187e-40)
(2.78294e-05 2.89187e-05 -3.61959e-23 3.37787e-05 -4.93989e-23 2.08264e-40)
(2.87335e-05 2.47642e-05 -1.18734e-24 2.71371e-05 -1.49435e-24 1.92587e-43)
(2.96302e-05 2.02552e-05 0 2.18898e-05 0 0)
(3.05532e-05 1.54886e-05 2.30839e-24 1.8058e-05 2.35154e-24 5.97137e-43)
(3.15253e-05 1.05703e-05 0 1.55919e-05 0 0)
(3.25593e-05 5.60611e-06 -7.01489e-23 1.43708e-05 -5.25152e-23 4.48481e-40)
(3.36558e-05 6.94038e-07 1.37032e-22 1.42178e-05 8.31092e-23 1.62551e-39)
(3.4809e-05 -4.07913e-06 -1.34688e-22 1.49228e-05 -6.24658e-23 1.45436e-39)
(3.60081e-05 -8.63586e-06 -6.51948e-23 1.62625e-05 -2.11813e-23 3.0065e-40)
(3.72112e-05 -1.29097e-05 1.34058e-22 1.80197e-05 2.53392e-23 1.26507e-39)
(3.78686e-05 -1.7091e-05 0 2.0183e-05 0 0)
(2.20132e-06 9.6075e-06 0 4.41216e-05 0 0)
(3.1633e-06 1.28449e-05 -4.1245e-23 5.4538e-05 -1.08672e-22 1.3543e-38)
(4.36032e-06 1.6432e-05 4.87983e-23 6.45299e-05 1.24245e-22 1.30912e-38)
(5.69825e-06 2.01514e-05 0 7.41341e-05 0 0)
(7.14657e-06 2.38866e-05 0 8.29976e-05 0 0)
(8.6964e-06 2.7549e-05 -1.20612e-24 9.07419e-05 -2.7867e-24 3.01817e-42)
(1.03452e-05 3.1054e-05 0 9.70119e-05 0 0)
(1.20792e-05 3.43013e-05 1.54793e-24 0.000101497 3.32789e-24 2.86979e-42)
(1.39386e-05 3.73022e-05 -2.72022e-23 0.000104136 -5.59844e-23 6.73907e-40)
(1.58871e-05 3.99442e-05 3.00078e-23 0.000104794 5.89362e-23 6.84145e-40)
(1.7939e-05 4.20954e-05 3.36794e-23 0.00010301 6.34588e-23 6.3532e-40)
(2.00725e-05 4.37259e-05 -3.53609e-23 9.91035e-05 -6.3227e-23 6.02374e-40)
(2.22364e-05 4.47656e-05 -1.17236e-24 9.33523e-05 -2.00469e-24 5.18967e-43)
(2.43871e-05 4.51648e-05 6.20592e-25 8.60956e-05 1.01531e-24 1.18805e-43)
(2.64609e-05 4.48729e-05 3.89295e-22 7.77471e-05 6.11285e-22 3.67956e-38)
(2.83923e-05 4.38536e-05 -4.0597e-22 6.8755e-05 -6.09089e-22 3.67938e-38)
(3.01271e-05 4.20926e-05 -6.90207e-25 5.95657e-05 -9.92247e-25 8.72487e-44)
(3.16339e-05 3.96034e-05 1.40067e-24 5.05942e-05 1.92201e-24 3.11116e-43)
(3.29107e-05 3.64303e-05 -4.47649e-23 4.22015e-05 -5.82878e-23 2.65967e-40)
(3.39852e-05 3.26476e-05 4.37692e-23 3.46802e-05 5.38214e-23 2.47718e-40)
(3.49084e-05 2.83524e-05 4.54775e-23 2.82427e-05 5.19877e-23 2.20742e-40)
(3.5739e-05 2.36543e-05 -4.40986e-23 2.30163e-05 -4.64924e-23 2.04341e-40)
(3.65297e-05 1.86683e-05 -2.67261e-24 1.90508e-05 -2.54599e-24 6.55834e-43)
(3.7322e-05 1.35123e-05 0 1.63286e-05 0 0)
(3.81438e-05 8.30101e-06 2.5927e-24 1.47688e-05 1.86295e-24 5.30088e-43)
(3.90077e-05 3.13863e-06 0 1.42373e-05 0 0)
(3.99211e-05 -1.88198e-06 0 1.45636e-05 0 0)
(4.08962e-05 -6.67657e-06 1.52829e-22 1.55565e-05 5.3834e-23 1.47295e-39)
(4.18902e-05 -1.11777e-05 -1.47961e-22 1.70183e-05 -3.42171e-23 1.34506e-39)
(4.20083e-05 -1.56913e-05 0 1.89904e-05 0 0)
(2.70925e-06 1.11388e-05 -3.63029e-23 4.78115e-05 -9.20214e-23 1.33195e-38)
(3.7464e-06 1.44026e-05 6.74946e-23 5.75746e-05 1.73278e-22 3.28229e-38)
(5.04341e-06 1.80124e-05 -2.6698e-23 6.67914e-05 -6.5625e-23 3.54107e-39)
(6.50675e-06 2.17553e-05 0 7.55058e-05 0 0)
(8.11934e-06 2.55328e-05 -3.71375e-23 8.34083e-05 -8.39328e-23 3.35736e-39)
(9.88592e-06 2.92697e-05 4.138e-23 9.01615e-05 8.89933e-23 3.23021e-39)
(1.18128e-05 3.28873e-05 -4.70839e-23 9.54645e-05 -9.67951e-23 2.98968e-39)
(1.38914e-05 3.62888e-05 5.44803e-23 9.90724e-05 1.05861e-22 3.24827e-39)
(1.61839e-05 3.95156e-05 0 0.00010104 0 0)
(1.86309e-05 4.2382e-05 2.09198e-24 0.000101075 3.66676e-24 2.79433e-42)
(2.12652e-05 4.48077e-05 -3.69801e-23 9.89715e-05 -6.18083e-23 6.49779e-40)
(2.40337e-05 4.67299e-05 2.01886e-23 9.5044e-05 3.16554e-23 1.77861e-40)
(2.68757e-05 4.80716e-05 2.7811e-24 8.95433e-05 4.00265e-24 4.26099e-42)
(2.97164e-05 4.87629e-05 2.23127e-23 8.27783e-05 3.20372e-23 1.31525e-40)
(3.24584e-05 4.87356e-05 5.32025e-22 7.5107e-05 7.35135e-22 5.63477e-38)
(3.50015e-05 4.79374e-05 -5.56308e-22 6.69029e-05 -7.35111e-22 5.63426e-38)
(3.72603e-05 4.63399e-05 2.65057e-23 5.85294e-05 3.36902e-23 9.94183e-41)
(3.91804e-05 4.39466e-05 -3.51741e-24 5.03208e-05 -4.28593e-24 2.94242e-42)
(4.07469e-05 4.07962e-05 2.59957e-23 4.25705e-05 3.01489e-23 6.60251e-41)
(4.19859e-05 3.69623e-05 -5.29967e-23 3.55232e-05 -5.85081e-23 2.92893e-40)
(4.29556e-05 3.25468e-05 -3.27274e-24 2.93682e-05 -3.38792e-24 9.63744e-43)
(4.37306e-05 2.76696e-05 0 2.42341e-05 0 0)
(4.4385e-05 2.24593e-05 1.00173e-22 2.01902e-05 8.79496e-23 7.2915e-40)
(4.49823e-05 1.70463e-05 -1.02557e-22 1.72492e-05 -8.10739e-23 7.59546e-40)
(4.55689e-05 1.15559e-05 9.86096e-23 1.53689e-05 6.80511e-23 6.1532e-40)
(4.61723e-05 6.10113e-06 -9.47143e-23 1.44574e-05 -5.58206e-23 5.63583e-40)
(4.68128e-05 7.83962e-07 -5.77036e-24 1.43853e-05 -2.75745e-24 1.91009e-42)
(4.75236e-05 -4.30048e-06 -8.84568e-23 1.49973e-05 -3.30996e-23 4.16014e-40)
(4.82714e-05 -9.07815e-06 2.57046e-22 1.61199e-05 6.81266e-23 3.34982e-39)
(4.78023e-05 -1.40088e-05 -1.79488e-22 1.78211e-05 -2.65527e-23 1.61986e-39)
(3.35409e-06 1.28596e-05 1.95563e-23 5.11259e-05 4.81846e-23 3.37496e-39)
(4.52055e-06 1.61985e-05 -2.59791e-23 6.00792e-05 -6.36395e-23 4.30866e-39)
(5.96561e-06 1.98561e-05 -3.13697e-23 6.84237e-05 -7.2952e-23 4.19389e-39)
(7.6117e-06 2.365e-05 3.72098e-23 7.61777e-05 8.16911e-23 4.30812e-39)
(9.45743e-06 2.74981e-05 -4.10288e-23 8.3064e-05 -8.5417e-23 3.63334e-39)
(1.15201e-05 3.13329e-05 5.03463e-23 8.87931e-05 9.854e-23 4.20079e-39)
(1.38142e-05 3.50783e-05 1.64842e-24 9.31199e-05 3.01066e-24 3.42441e-42)
(1.63437e-05 3.86504e-05 0 9.58747e-05 0 0)
(1.91805e-05 4.20934e-05 -3.42567e-23 9.71686e-05 -5.62615e-23 7.96006e-40)
(2.22568e-05 4.51763e-05 -2.356e-24 9.66199e-05 -4.04578e-24 7.76038e-43)
(2.56075e-05 4.786e-05 -2.55968e-24 9.42649e-05 -4.16891e-24 6.56545e-43)
(2.91546e-05 5.00568e-05 4.74117e-23 9.03741e-05 6.53785e-23 7.61462e-40)
(3.28202e-05 5.16847e-05 2.32046e-23 8.51814e-05 3.06772e-23 1.3358e-40)
(3.64942e-05 5.26592e-05 -3.97187e-23 7.89645e-05 -4.99752e-23 3.34499e-40)
(4.00398e-05 5.2899e-05 7.1531e-22 7.20258e-05 8.66823e-22 8.38314e-38)
(4.33169e-05 5.23376e-05 -7.20116e-22 6.46665e-05 -8.36579e-22 7.74357e-38)
(4.62051e-05 5.09331e-05 -4.4961e-23 5.71698e-05 -5.04486e-23 2.40022e-40)
(4.86235e-05 4.86764e-05 3.45205e-23 4.9792e-05 3.72929e-23 1.28859e-40)
(5.05436e-05 4.55963e-05 6.14584e-23 4.27595e-05 6.37222e-23 3.28106e-40)
(5.19898e-05 4.1761e-05 3.27435e-24 3.62674e-05 3.08671e-24 4.66198e-43)
(5.30299e-05 3.72717e-05 3.16223e-24 3.04775e-05 2.77142e-24 4.34659e-43)
(5.37566e-05 3.22538e-05 -6.06951e-23 2.55136e-05 -5.35305e-23 2.54996e-40)
(5.42678e-05 2.68452e-05 0 2.14582e-05 0 0)
(5.46517e-05 2.11872e-05 -3.67655e-24 1.83503e-05 -2.69574e-24 7.69333e-43)
(5.49775e-05 1.5416e-05 1.04903e-22 1.61833e-05 6.9061e-23 5.69788e-40)
(5.52899e-05 9.65481e-06 -1.10515e-22 1.49055e-05 -6.35248e-23 6.33761e-40)
(5.56247e-05 4.01578e-06 1.05576e-22 1.44289e-05 5.10595e-23 5.19393e-40)
(5.60351e-05 -1.39096e-06 -9.78717e-23 1.46358e-05 -3.83556e-23 4.45194e-40)
(5.65017e-05 -6.48041e-06 -9.4895e-23 1.53822e-05 -2.78834e-23 3.75325e-40)
(5.5403e-05 -1.18952e-05 1.06596e-22 1.67333e-05 2.03093e-23 4.83073e-40)
(4.19985e-06 1.48137e-05 0 5.38966e-05 0 0)
(5.55944e-06 1.82644e-05 -2.56133e-23 6.19082e-05 -5.85306e-23 3.52952e-39)
(7.21137e-06 2.19893e-05 3.70629e-23 6.93058e-05 7.92463e-23 5.24473e-39)
(9.10906e-06 2.5852e-05 -4.15586e-23 7.60435e-05 -8.34023e-23 4.50993e-39)
(1.12677e-05 2.97828e-05 4.57694e-23 8.18749e-05 8.55745e-23 4.1035e-39)
(1.37169e-05 3.37189e-05 -4.97298e-23 8.65633e-05 -8.71881e-23 3.38817e-39)
(1.64776e-05 3.7584e-05 5.68595e-23 8.99218e-05 9.25103e-23 3.47891e-39)
(1.95865e-05 4.13314e-05 4.26453e-24 9.18716e-05 6.47786e-24 1.45539e-41)
(2.30821e-05 4.49433e-05 2.40578e-24 9.24845e-05 3.42977e-24 3.49606e-42)
(2.69298e-05 4.82174e-05 2.69019e-24 9.14287e-05 3.60811e-24 3.33137e-42)
(3.11387e-05 5.1124e-05 3.01527e-24 8.88972e-05 3.83202e-24 3.15754e-42)
(3.56139e-05 5.35636e-05 -1.64853e-24 8.51083e-05 -1.9852e-24 7.38056e-43)
(4.02513e-05 5.54513e-05 3.01323e-23 8.02844e-05 3.46728e-23 1.892e-40)
(4.49006e-05 5.66945e-05 -1.52303e-23 7.46706e-05 -1.65686e-23 4.59648e-41)
(4.93807e-05 5.7203e-05 8.83466e-22 6.85148e-05 9.38608e-22 1.05553e-37)
(5.35077e-05 5.68985e-05 -9.59895e-22 6.20492e-05 -9.81454e-22 1.13368e-37)
(5.71223e-05 5.57248e-05 -1.72387e-23 5.54812e-05 -1.71658e-23 2.54945e-41)
(6.01157e-05 5.36576e-05 3.11202e-23 4.89931e-05 2.99153e-23 8.69994e-41)
(6.24448e-05 5.07121e-05 -2.24374e-24 4.27462e-05 -2.08442e-24 3.73539e-43)
(6.41337e-05 4.6945e-05 -8.98191e-24 3.6886e-05 -8.02746e-24 5.31238e-42)
(6.52617e-05 4.24518e-05 -4.47395e-24 3.15431e-05 -3.81547e-24 1.18589e-42)
(6.59423e-05 3.73574e-05 -4.41842e-24 2.68307e-05 -3.56286e-24 1.05582e-42)
(6.62997e-05 3.18045e-05 -8.67854e-24 2.28387e-05 -6.53721e-24 3.76186e-42)
(6.64499e-05 2.59429e-05 1.42569e-22 1.9627e-05 9.89778e-23 9.2112e-40)
(6.64872e-05 1.99184e-05 -1.40615e-22 1.72204e-05 -8.87257e-23 8.95651e-40)
(6.64767e-05 1.38643e-05 1.26894e-22 1.56046e-05 7.07115e-23 6.50674e-40)
(6.64734e-05 7.9041e-06 -1.17182e-22 1.47317e-05 -5.66037e-23 5.58018e-40)
(6.65513e-05 2.16406e-06 1.04357e-22 1.45224e-05 4.20512e-23 3.98733e-40)
(6.67039e-05 -3.2558e-06 -1.24779e-22 1.48655e-05 -4.04475e-23 5.70717e-40)
(6.4945e-05 -9.20107e-06 0 1.57965e-05 0 0)
(5.32585e-06 1.70294e-05 0 5.59649e-05 0 0)
(6.95382e-06 2.06118e-05 -1.90762e-24 6.29264e-05 -3.94097e-24 1.72668e-41)
(8.88244e-06 2.44112e-05 3.2453e-23 6.93212e-05 6.25372e-23 3.32194e-39)
(1.11116e-05 2.83436e-05 -3.637e-27 7.50024e-05 2.14237e-25 1.75617e-42)
(1.36744e-05 3.23494e-05 -5.14422e-23 7.97612e-05 -8.48514e-23 4.45515e-39)
(1.66123e-05 3.63689e-05 -3.75967e-24 8.34137e-05 -5.77649e-24 1.68298e-41)
(1.99516e-05 4.03238e-05 -4.22528e-24 8.58276e-05 -5.96188e-24 1.63768e-41)
(2.37755e-05 4.42218e-05 3.39153e-23 8.70351e-05 4.48804e-23 7.52787e-40)
(2.80618e-05 4.79456e-05 -4.66902e-23 8.69945e-05 -5.74499e-23 1.13698e-39)
(3.28288e-05 5.13692e-05 -4.18842e-26 8.55367e-05 -6.98295e-26 8.27963e-47)
(3.80423e-05 5.44466e-05 2.72268e-23 8.29003e-05 2.99326e-23 2.12346e-40)
(4.35962e-05 5.70866e-05 -2.98281e-23 7.92825e-05 -3.08667e-23 2.14903e-40)
(4.93508e-05 5.92029e-05 1.41445e-23 7.48891e-05 1.41485e-23 3.48803e-41)
(5.51107e-05 6.07004e-05 -1.73406e-23 6.993e-05 -1.65632e-23 4.61341e-41)
(6.06466e-05 6.14833e-05 1.12641e-21 6.46004e-05 1.04983e-21 1.44087e-37)
(6.57267e-05 6.14629e-05 -1.18118e-21 5.90679e-05 -1.06519e-21 1.44089e-37)
(7.0151e-05 6.05683e-05 -1.99012e-23 5.34697e-05 -1.75573e-23 3.1186e-41)
(7.3782e-05 5.87569e-05 2.29878e-23 4.79191e-05 1.97474e-23 3.90065e-41)
(7.65627e-05 5.60253e-05 -3.86562e-23 4.25161e-05 -3.23003e-23 8.75413e-41)
(7.85185e-05 5.24139e-05 5.19755e-23 3.73569e-05 4.21595e-23 1.52689e-40)
(7.97426e-05 4.80062e-05 -3.113e-26 3.2539e-05 -1.67539e-26 4.39955e-47)
(8.0372e-05 4.29213e-05 -8.12392e-23 2.816e-05 -6.03606e-23 2.84029e-40)
(8.05601e-05 3.73021e-05 9.04312e-23 2.4311e-05 6.3769e-23 3.50014e-40)
(8.04527e-05 3.13035e-05 9.84473e-24 2.10677e-05 6.43631e-24 3.71785e-42)
(8.01722e-05 2.50793e-05 9.47423e-24 1.84808e-05 5.72488e-24 3.27141e-42)
(7.98069e-05 1.87721e-05 -1.47203e-22 1.65696e-05 -7.97976e-23 7.24758e-40)
(7.94333e-05 1.25173e-05 1.97299e-24 1.53232e-05 1.16792e-24 2.03113e-42)
(7.91488e-05 6.45691e-06 1.57312e-22 1.47011e-05 6.50756e-23 7.91957e-40)
(7.8959e-05 7.07306e-07 0 1.46268e-05 0 0)
(7.65266e-05 -5.78806e-06 0 1.5083e-05 0 0)
(6.83007e-06 1.95118e-05 0 5.71799e-05 0 0)
(8.81389e-06 2.32238e-05 3.72211e-23 6.30107e-05 6.86196e-23 5.32804e-39)
(1.10992e-05 2.70861e-05 3.98276e-26 6.83653e-05 2.58488e-25 1.62398e-42)
(1.37503e-05 3.10685e-05 -2.53669e-26 7.29736e-05 1.87308e-25 1.9517e-42)
(1.68204e-05 3.51214e-05 -1.12398e-22 7.66664e-05 -1.60635e-22 1.78104e-38)
(2.03612e-05 3.91861e-05 6.72108e-23 7.93152e-05 8.81531e-23 4.78243e-39)
(2.44104e-05 4.31917e-05 4.84611e-24 8.08458e-05 5.90482e-24 1.78896e-41)
(2.90726e-05 4.71693e-05 0 8.13667e-05 0 0)
(3.43007e-05 5.0946e-05 -4.65418e-23 8.07441e-05 -4.93422e-23 9.09597e-40)
(4.01347e-05 5.44583e-05 5.19785e-23 7.89874e-05 5.11964e-23 9.30824e-40)
(4.65027e-05 5.76503e-05 -3.07905e-23 7.63306e-05 -2.90525e-23 2.32857e-40)
(5.32816e-05 6.04445e-05 -6.75608e-26 7.29573e-05 -3.94223e-25 4.6208e-43)
(6.02903e-05 6.27588e-05 3.65893e-23 6.90538e-05 3.14048e-23 2.19648e-40)
(6.72839e-05 6.45008e-05 -1.22485e-24 6.47945e-05 -1.02398e-24 1.89266e-43)
(7.39808e-05 6.55716e-05 1.38078e-21 6.03246e-05 1.131e-21 1.84134e-37)
(8.00992e-05 6.58732e-05 -1.448e-21 5.57525e-05 -1.15531e-21 1.84304e-37)
(8.53974e-05 6.53178e-05 1.41869e-24 5.11521e-05 1.11423e-24 1.40681e-43)
(8.97098e-05 6.38417e-05 4.65212e-23 4.65741e-05 3.58968e-23 1.22784e-40)
(9.29673e-05 6.14178e-05 -1.33598e-25 4.20614e-05 -1.50719e-25 4.69693e-43)
(9.51987e-05 5.80647e-05 -5.94813e-23 3.76628e-05 -4.39807e-23 1.67686e-40)
(9.65143e-05 5.38485e-05 1.00326e-22 3.34414e-05 7.17939e-23 3.96695e-40)
(9.70774e-05 4.88771e-05 -9.40364e-23 2.94753e-05 -6.50762e-23 3.44099e-40)
(9.70729e-05 4.32893e-05 0 2.58516e-05 0 0)
(9.66797e-05 3.72414e-05 -1.12039e-23 2.26552e-05 -6.97337e-24 4.06151e-42)
(9.60502e-05 3.08934e-05 1.74714e-22 1.99575e-05 1.0066e-22 8.96572e-40)
(9.52979e-05 2.43957e-05 -3.5186e-22 1.78063e-05 -1.86162e-22 3.55764e-39)
(9.45234e-05 1.78962e-05 2.07277e-24 1.62243e-05 1.26777e-24 2.2357e-42)
(9.38481e-05 1.1552e-05 -8.07837e-24 1.52084e-05 -3.15075e-24 1.3413e-42)
(9.32892e-05 5.49425e-06 1.55842e-22 1.47177e-05 5.64049e-23 6.21973e-40)
(9.01889e-05 -1.53943e-06 0 1.46645e-05 0 0)
(8.83058e-06 2.22338e-05 4.13472e-24 5.74084e-05 7.14252e-24 8.45914e-41)
(1.12692e-05 2.60462e-05 0 6.20615e-05 0 0)
(1.40012e-05 2.99393e-05 3.00264e-24 6.63608e-05 4.38329e-24 2.03673e-41)
(1.7175e-05 3.39316e-05 -5.24698e-23 6.99065e-05 -6.97405e-23 4.48068e-39)
(2.08649e-05 3.79815e-05 6.52519e-23 7.25694e-05 7.87945e-23 5.27598e-39)
(2.51304e-05 4.20316e-05 -7.56504e-23 7.42757e-05 -8.43203e-23 4.98241e-39)
(3.00308e-05 4.60322e-05 8.64363e-23 7.50145e-05 8.80248e-23 5.12008e-39)
(3.56605e-05 4.99998e-05 4.92886e-23 7.49071e-05 4.70851e-23 1.18088e-39)
(4.1983e-05 5.37586e-05 -1.18379e-22 7.38064e-05 -1.05441e-22 5.29406e-39)
(4.90283e-05 5.72901e-05 -4.06049e-24 7.18607e-05 -4.06297e-24 1.18849e-42)
(5.66957e-05 6.05379e-05 6.46475e-23 6.92727e-05 5.1393e-23 9.70171e-40)
(6.48356e-05 6.34414e-05 -3.79618e-23 6.62162e-05 -2.94049e-23 2.38959e-40)
(7.32203e-05 6.5929e-05 2.04493e-23 6.28561e-05 1.50114e-23 6.56756e-41)
(8.15519e-05 6.79145e-05 3.45171e-23 5.93317e-05 2.51753e-23 1.31751e-40)
(8.94934e-05 6.92984e-05 1.64921e-21 5.57426e-05 1.18973e-21 2.2682e-37)
(9.67118e-05 6.99724e-05 -1.75106e-21 5.21444e-05 -1.24025e-21 2.33123e-37)
(0.000102924 6.983e-05 3.68467e-23 4.85554e-05 2.59135e-23 8.0218e-41)
(0.000107939 6.87819e-05 2.63513e-23 4.49709e-05 1.8349e-23 3.02696e-41)
(0.000111677 6.67727e-05 -5.35649e-23 4.13819e-05 -3.68686e-23 1.33158e-40)
(0.000114174 6.37939e-05 1.21202e-22 3.77924e-05 8.19273e-23 5.47053e-40)
(0.00011556 5.98886e-05 6.36047e-24 3.42308e-05 3.89651e-24 7.51542e-43)
(0.000116029 5.51491e-05 -1.99993e-22 3.07527e-05 -1.28718e-22 1.26544e-39)
(0.000115799 4.97058e-05 1.05348e-22 2.74358e-05 6.54585e-23 3.36015e-40)
(0.000115085 4.37134e-05 2.04877e-22 2.43686e-05 1.20613e-22 1.1016e-39)
(0.000114071 3.73353e-05 -2.0141e-22 2.16371e-05 -1.12246e-22 1.07129e-39)
(0.000112898 3.07294e-05 1.93732e-22 1.93125e-05 9.98302e-23 8.82933e-40)
(0.000111693 2.40545e-05 -2.01783e-22 1.74472e-05 -9.54805e-23 9.6323e-40)
(0.0001106 1.74831e-05 1.15112e-23 1.6072e-05 4.86362e-24 2.87754e-42)
(0.000109648 1.11595e-05 0 1.51805e-05 0 0)
(0.000105904 3.6318e-06 -2.25572e-23 1.4606e-05 -6.81655e-24 1.00272e-41)
(1.14662e-05 2.51293e-05 -4.82021e-24 5.65448e-05 -7.26008e-24 9.14838e-41)
(1.44686e-05 2.89845e-05 4.78839e-23 6.00117e-05 6.46006e-23 6.28117e-39)
(1.77457e-05 3.28546e-05 -5.36512e-23 6.327e-05 -6.52484e-23 5.77509e-39)
(2.15504e-05 3.67949e-05 -3.97502e-24 6.57933e-05 -4.42918e-24 2.21077e-41)