/*--------------------------------*- C++ -*----------------------------------*\
  =========                 |
  \\      /  F ield         | OpenFOAM: The Open Source CFD Toolbox
   \\    /   O peration     | Website:  https://openfoam.org
    \\  /    A nd           | Version:  12
     \\/     M anipulation  |
\*---------------------------------------------------------------------------*/
FoamFile
{
    format      ascii;
    class       volVectorField;
    location    "0";
    object      wallShearStress;
}
// * * * * * * * * * * * * * * * * * * * * * * * * * * * * * * * * * * * * * //

dimensions      [0 2 -2 0 0 0 0];

internalField   uniform (0 0 0);

boundaryField
{
    inlet
    {
        type            calculated;
        value           uniform (0 0 0);
    }
    outlet
    {
        type            calculated;
        value           uniform (0 0 0);
    }
    pipe-0
    {
        type            calculated;
        value           nonuniform List<vector> 
76
(
(-0.712481 -0.0973106 0)
(-0.713384 -0.0974281 8.47319e-20)
(-0.791941 -0.104718 0)
(-0.790958 -0.104589 0)
(-0.790958 0.104589 0)
(-0.713384 0.0974281 -8.47319e-20)
(-0.680542 -0.0732231 2.97781e-20)
(-0.854423 -0.0573495 5.38767e-20)
(-0.85426 -0.0572799 0)
(-0.867835 -0.0199354 8.58863e-21)
(-0.868558 -0.0199883 3.16136e-20)
(-0.867697 -0.0199946 1.60886e-20)
(-0.86853 0.0199876 3.16126e-20)
(-0.868883 0.020002 -4.38866e-20)
(-0.853473 0.057232 0)
(-0.853373 0.0572113 0)
(-0.827152 -0.0868158 -8.88217e-20)
(-0.801162 0.101107 0)
(-0.825828 0.0866887 0)
(-0.825828 -0.0866887 -0)
(-0.713063 -0.0973844 -9.5557e-20)
(-0.659719 -0.0392736 0)
(-0.681638 -0.0733503 -5.49272e-20)
(-0.659701 -0.0392811 0)
(-0.652996 0 0)
(-0.660053 0.0392951 -4.31203e-21)
(-0.681613 0.0733418 0)
(-0.680811 0.0732605 -2.43715e-20)
(-0.751633 0.108346 0)
(-0.791345 0.104636 -1.4192e-19)
(-0.853598 0.0572541 0)
(-0.827152 0.0868158 8.88217e-20)
(-0.853352 0.0572354 6.63546e-20)
(-0.868556 0.0200016 0)
(-0.868539 -0.0200011 -0)
(-0.853662 -0.0572186 -0)
(-0.854678 0.0573667 -5.38928e-20)
(-0.791941 0.104718 0)
(-0.853911 -0.0572751 -0)
(-0.712481 0.0973106 0)
(-0.791345 -0.104636 1.4192e-19)
(-0.681638 0.0733503 0)
(-0.659719 0.0392736 0)
(-0.659701 0.0392811 0)
(-0.652996 0 0)
(-0.660053 -0.0392951 -0)
(-0.681613 -0.0733418 -0)
(-0.680811 -0.0732605 2.43715e-20)
(-0.66012 -0.0392989 0)
(-0.652778 0 0)
(-0.659723 0.039282 0)
(-0.659858 0.0392866 0)
(-0.751475 -0.108323 0)
(-0.75155 -0.108335 -1.38558e-19)
(-0.712258 0.0972753 0)
(-0.713063 0.0973844 9.5557e-20)
(-0.741258 0.106884 1.15553e-19)
(-0.826709 -0.0867687 0)
(-0.827563 -0.0868615 0)
(-0.853714 0.0572682 -2.75094e-20)
(-0.86885 0.0199917 0)
(-0.86914 -0.0200071 -0)
(-0.853987 -0.05729 -0)
(-0.826636 0.0867612 0)
(-0.827551 0.0868603 0)
(-0.801162 -0.101107 -0)
(-0.75155 0.108335 1.38558e-19)
(-0.751475 0.108323 0)
(-0.680542 0.0732231 -2.97781e-20)
(-0.751633 -0.108346 -0)
(-0.741258 -0.106884 -1.15553e-19)
(-0.712258 -0.0972753 -0)
(-0.66012 0.0392989 0)
(-0.652778 0 0)
(-0.659723 -0.039282 -0)
(-0.659858 -0.0392866 -0)
)
;
    }
    pipe-1
    {
        type            calculated;
        value           nonuniform List<vector> 
78
(
(-0.871604 0.0200699 -2.15045e-20)
(-0.853592 0.0572693 0)
(-0.872474 -0.0200721 -0)
(-0.854242 -0.0572962 -0)
(-0.854045 0.0572747 0)
(-0.713533 -0.0974522 -8.64457e-20)
(-0.681802 0.0733747 0)
(-0.712234 -0.0972762 2.85034e-20)
(-0.681802 -0.0733747 0)
(-0.680779 0.0732669 0)
(-0.791475 -0.104659 0)
(-0.713533 0.0974522 8.64457e-20)
(-0.854045 -0.0572747 0)
(-0.871604 -0.0200699 2.15045e-20)
(-0.853592 -0.0572693 0)
(-0.854242 0.0572962 0)
(-0.872474 0.0200721 0)
(-0.871451 0.0200555 0)
(-0.854072 0.0572729 0)
(-0.86854 -0.0200123 -0)
(-0.82783 0.086883 0)
(-0.791719 0.104684 0)
(-0.75094 0.108245 -5.65981e-20)
(-0.751128 0.108273 0)
(-0.73832 0.106299 0)
(-0.7127 0.0973383 0)
(-0.712525 -0.0973129 -3.73875e-20)
(-0.751982 -0.108397 1.32933e-19)
(-0.75094 -0.108245 5.65981e-20)
(-0.751128 -0.108273 0)
(-0.73832 -0.106299 0)
(-0.7127 -0.0973383 0)
(-0.712525 0.0973129 3.73875e-20)
(-0.827694 0.0868831 0)
(-0.854776 0.0573243 0)
(-0.854072 -0.0572729 0)
(-0.86854 0.0200123 0)
(-0.751778 -0.108367 -7.42046e-20)
(-0.869935 -0.0200244 -0)
(-0.869935 0.0200244 0)
(-0.791475 0.104659 0)
(-0.791821 -0.104703 -1.22783e-19)
(-0.790774 -0.104564 -0)
(-0.712234 0.0972762 -2.85034e-20)
(-0.680779 -0.0732669 -0)
(-0.659645 0.0392667 6.01049e-21)
(-0.659782 0.039303 0)
(-0.660224 -0.0392913 5.85603e-21)
(-0.659764 -0.0392923 -0)
(-0.659645 -0.0392667 -6.01049e-21)
(-0.659782 -0.039303 0)
(-0.660224 0.0392913 -5.85603e-21)
(-0.659764 0.0392923 0)
(-0.791821 0.104703 1.22783e-19)
(-0.751778 0.108367 7.42046e-20)
(-0.791719 -0.104684 0)
(-0.790774 0.104564 0)
(-0.871451 -0.0200555 0)
(-0.854776 -0.0573243 -0)
(-0.827157 0.0868364 0)
(-0.827105 -0.0868131 -0)
(-0.827694 -0.0868831 -0)
(-0.680717 0.0732521 0)
(-0.660048 0.0392752 6.44981e-21)
(-0.653049 0 0)
(-0.652812 0 0)
(-0.659738 -0.0392743 -0)
(-0.681786 -0.0733672 5.25436e-20)
(-0.680717 -0.0732521 0)
(-0.660048 -0.0392752 -6.44981e-21)
(-0.653049 0 0)
(-0.652812 0 0)
(-0.659738 0.0392743 -5.68551e-21)
(-0.681786 0.0733672 0)
(-0.751982 0.108397 -1.32933e-19)
(-0.827157 -0.0868364 0)
(-0.82783 -0.086883 0)
(-0.827105 0.0868131 0)
)
;
    }
    pipe-2
    {
        type            calculated;
        value           nonuniform List<vector> 
78
(
(-0.68109 -0.0732871 -3.22156e-20)
(-0.712418 -0.0973012 -4.73167e-20)
(-0.713093 0.0973885 -9.35224e-20)
(-0.712631 0.0973333 -2.72923e-20)
(-0.790257 0.104498 6.62364e-20)
(-0.853233 -0.0572171 0)
(-0.790489 -0.104525 0)
(-0.791369 0.104644 -8.33501e-20)
(-0.854623 -0.0573242 -1.43907e-19)
(-0.854623 0.0573242 1.43907e-19)
(-0.853233 0.0572171 0)
(-0.790489 0.104525 0)
(-0.791369 -0.104644 8.33501e-20)
(-0.712418 0.0973012 4.73167e-20)
(-0.713093 -0.0973885 9.35224e-20)
(-0.790257 -0.104498 -6.62364e-20)
(-0.712631 -0.0973333 2.72923e-20)
(-0.68078 -0.0732669 1.17543e-20)
(-0.712702 0.097335 2.08909e-20)
(-0.751581 -0.108338 -1.17953e-19)
(-0.791278 -0.104635 0)
(-0.713671 -0.0974682 0)
(-0.751819 0.108373 -1.11706e-19)
(-0.826768 -0.086774 0)
(-0.827591 -0.0868765 1.50537e-19)
(-0.826768 0.086774 0)
(-0.791278 0.104635 0)
(-0.713671 0.0974682 0)
(-0.764706 -0.108692 -0)
(-0.751819 -0.108373 1.11706e-19)
(-0.680753 -0.0732447 0)
(-0.652675 0 0)
(-0.652359 0 0)
(-0.660104 0.0392973 -1.04119e-20)
(-0.680584 0.0732366 0)
(-0.681717 0.073355 5.07658e-20)
(-0.853407 0.057237 0)
(-0.868483 -0.0199997 3.28242e-20)
(-0.854622 0.0573206 0)
(-0.868482 0.0199997 3.28241e-20)
(-0.854622 -0.0573206 7.32553e-20)
(-0.853407 -0.057237 -0)
(-0.68109 0.0732871 3.22156e-20)
(-0.680753 0.0732447 0)
(-0.652675 0 0)
(-0.652359 0 0)
(-0.660104 -0.0392973 1.04119e-20)
(-0.681717 -0.073355 -5.07658e-20)
(-0.680584 -0.0732366 -0)
(-0.660221 -0.0393043 0)
(-0.660228 -0.0393107 9.6247e-21)
(-0.652581 0 0)
(-0.660271 0.0393128 0)
(-0.761924 -0.108718 -1.32835e-19)
(-0.764706 0.108692 0)
(-0.826781 0.086767 -6.47178e-20)
(-0.827698 0.0868918 -1.4557e-19)
(-0.867761 -0.0199393 0)
(-0.86772 -0.0199826 0)
(-0.867884 0.0199895 0)
(-0.868792 0.01998 0)
(-0.868466 0.0199997 -1.68466e-20)
(-0.867719 0.0199826 0)
(-0.867761 0.0199393 0)
(-0.868791 -0.01998 -0)
(-0.868466 -0.0199997 1.68466e-20)
(-0.867884 -0.0199895 -0)
(-0.827591 0.0868765 0)
(-0.826781 -0.086767 6.47178e-20)
(-0.827698 -0.0868918 -0)
(-0.761924 0.108718 1.32835e-19)
(-0.751581 0.108338 1.17953e-19)
(-0.68078 0.0732669 -1.17543e-20)
(-0.712702 -0.097335 -2.08909e-20)
(-0.660221 0.0393043 0)
(-0.660228 0.0393107 -9.6247e-21)
(-0.652581 0 0)
(-0.660271 -0.0393128 -0)
)
;
    }
    pipe-5
    {
        type            calculated;
        value           nonuniform List<vector> 
78
(
(-0.854881 0.0573305 0)
(-0.853347 0.057224 4.10784e-20)
(-0.790482 0.104525 0)
(-0.791308 -0.104636 8.33443e-20)
(-0.712517 0.0973221 4.73268e-20)
(-0.713017 -0.0973812 -0)
(-0.790279 -0.104492 -6.62328e-20)
(-0.712538 -0.0973134 2.72774e-20)
(-0.680848 -0.073261 0)
(-0.712517 -0.0973221 -4.73268e-20)
(-0.713017 0.0973812 0)
(-0.712538 0.0973134 -2.72774e-20)
(-0.790279 0.104492 6.62328e-20)
(-0.853347 -0.057224 -4.10784e-20)
(-0.790482 -0.104525 0)
(-0.791308 0.104636 -8.33443e-20)
(-0.854881 -0.0573305 0)
(-0.854981 -0.0573424 -7.32832e-20)
(-0.826694 0.0867676 0)
(-0.827658 0.0868804 0)
(-0.713707 0.09747 0)
(-0.764867 -0.108714 -0)
(-0.680745 -0.0732631 1.17536e-20)
(-0.681618 0.0733574 0)
(-0.712427 0.0972811 0)
(-0.751844 -0.108377 0)
(-0.791315 -0.104637 0)
(-0.713707 -0.09747 0)
(-0.826694 -0.0867676 0)
(-0.827658 -0.0868804 0)
(-0.854981 0.0573424 7.32832e-20)
(-0.872596 0.0200858 0)
(-0.853453 -0.057239 -0)
(-0.680848 0.073261 0)
(-0.68069 0.073256 -2.16414e-20)
(-0.652651 0 0)
(-0.652193 0 0)
(-0.660059 -0.0392915 -0)
(-0.681618 -0.0733574 -5.07728e-20)
(-0.680567 -0.0732272 1.81191e-20)
(-0.68069 -0.073256 2.16414e-20)
(-0.652651 0 0)
(-0.652193 0 0)
(-0.660059 0.0392915 0)
(-0.680567 0.0732272 0)
(-0.853453 0.057239 0)
(-0.872596 -0.0200858 0)
(-0.869953 0.0200253 0)
(-0.868426 0.0199864 -1.46356e-20)
(-0.872401 -0.0200846 -0)
(-0.870037 -0.0200111 -0)
(-0.868537 -0.0200109 -1.43686e-20)
(-0.791315 0.104637 0)
(-0.826838 -0.086781 -0)
(-0.827736 -0.0868966 -0)
(-0.762193 0.108755 0)
(-0.751844 0.108377 0)
(-0.680745 0.0732631 0)
(-0.712427 -0.0972811 -0)
(-0.751859 -0.108379 -0)
(-0.660268 0.0393071 -9.49594e-21)
(-0.660272 0.0393076 -9.62395e-21)
(-0.652462 0 0)
(-0.660316 -0.0393129 8.83545e-21)
(-0.660268 -0.0393071 0)
(-0.660272 -0.0393076 0)
(-0.652462 0 0)
(-0.660316 0.0393129 -8.83545e-21)
(-0.762193 -0.108755 0)
(-0.751859 0.108379 0)
(-0.764867 0.108714 0)
(-0.826838 0.086781 0)
(-0.827736 0.0868966 0)
(-0.868426 -0.0199864 0)
(-0.869953 -0.0200253 0)
(-0.868537 0.0200109 1.43686e-20)
(-0.872401 0.0200846 0)
(-0.870037 0.0200111 0)
)
;
    }
    pipe-3
    {
        type            calculated;
        value           nonuniform List<vector> 
76
(
(-0.791054 0.104593 0)
(-0.791922 0.104719 0)
(-0.713582 0.0974587 0)
(-0.712539 -0.0973027 -3.87049e-20)
(-0.681777 0.0733626 0)
(-0.713582 -0.0974587 0)
(-0.791922 -0.104719 0)
(-0.791054 -0.104593 0)
(-0.872389 0.0200974 1.58628e-20)
(-0.870536 0.0200259 4.39975e-20)
(-0.853177 0.057255 -7.19214e-20)
(-0.853818 0.0572351 0)
(-0.827537 -0.0868628 -0)
(-0.680591 -0.0732534 2.97831e-20)
(-0.68171 -0.0733609 5.49351e-20)
(-0.751408 -0.108313 0)
(-0.751322 -0.108302 1.38517e-19)
(-0.827537 0.0868628 0)
(-0.853987 -0.0572873 -9.33733e-20)
(-0.868204 -0.0199461 0)
(-0.872452 -0.0200989 -1.58639e-20)
(-0.86951 -0.0200146 -1.61362e-20)
(-0.826111 -0.08672 -0)
(-0.801236 -0.101116 -0)
(-0.801236 0.101116 0)
(-0.826111 0.08672 0)
(-0.741198 -0.106875 -0)
(-0.713126 -0.097399 -0)
(-0.713126 0.097399 0)
(-0.741198 0.106875 0)
(-0.872649 -0.0200861 3.11023e-20)
(-0.853742 -0.0572448 -0)
(-0.854009 -0.0572758 -0)
(-0.712539 0.0973027 3.87049e-20)
(-0.65972 0.0392792 -4.69387e-21)
(-0.659728 0.0392901 0)
(-0.652949 0 0)
(-0.660128 -0.0392741 4.30974e-21)
(-0.681777 -0.0733626 -0)
(-0.680912 -0.0732789 -0)
(-0.65972 -0.0392792 4.69387e-21)
(-0.659728 -0.0392901 0)
(-0.652949 0 0)
(-0.660128 0.0392741 -4.30974e-21)
(-0.680912 0.0732789 0)
(-0.791321 0.104636 -1.41905e-19)
(-0.854099 -0.0572981 0)
(-0.854009 0.0572758 0)
(-0.853742 0.0572448 0)
(-0.872649 0.0200861 0)
(-0.854388 0.0573175 0)
(-0.870662 -0.0200408 -0)
(-0.854217 -0.0572901 -0)
(-0.826629 0.0867637 0)
(-0.827541 0.0868583 8.3714e-20)
(-0.791321 -0.104636 1.41905e-19)
(-0.751322 0.108302 -1.38517e-19)
(-0.751408 0.108313 0)
(-0.680591 0.0732534 -2.97831e-20)
(-0.68171 0.0733609 -5.49351e-20)
(-0.751574 -0.108337 -0)
(-0.712383 -0.097283 -0)
(-0.660013 0.0392731 0)
(-0.652708 0 0)
(-0.660072 -0.0392922 -0)
(-0.660055 -0.0393199 -7.33859e-21)
(-0.660013 -0.0392731 0)
(-0.652708 0 0)
(-0.660072 0.0392922 0)
(-0.660055 0.0393199 7.33859e-21)
(-0.712383 0.097283 0)
(-0.751574 0.108337 0)
(-0.826629 -0.0867637 0)
(-0.827541 -0.0868583 -8.3714e-20)
(-0.854217 0.0572901 0)
(-0.870662 0.0200408 0)
)
;
    }
    pipe-4
    {
        type            calculated;
        value           nonuniform List<vector> 
78
(
(-0.712291 -0.0972826 0)
(-0.681718 -0.0733544 0)
(-0.680606 0.0732317 -1.65264e-20)
(-0.791646 -0.104682 1.48932e-19)
(-0.713606 0.0974627 8.64341e-20)
(-0.853905 -0.0572627 -6.51849e-20)
(-0.86758 -0.0199698 0)
(-0.853576 -0.0572405 0)
(-0.854106 0.0572764 0)
(-0.8685 0.0199915 3.19363e-20)
(-0.86758 0.0199698 0)
(-0.853576 0.0572405 0)
(-0.868502 -0.0199916 3.19364e-20)
(-0.854106 -0.0572764 -0)
(-0.853905 0.0572627 6.51849e-20)
(-0.681718 0.0733544 0)
(-0.750741 -0.108218 0)
(-0.750729 -0.108216 -5.71045e-20)
(-0.73831 -0.1063 0)
(-0.712882 -0.0973639 9.5442e-20)
(-0.712664 0.0973336 0)
(-0.791629 -0.10468 0)
(-0.854516 0.0573032 0)
(-0.853685 -0.0572493 2.57619e-20)
(-0.86924 -0.0200075 0)
(-0.86798 0.0199774 0)
(-0.868015 0.0199791 0)
(-0.86924 0.0200075 3.71238e-20)
(-0.853685 0.0572493 -2.57619e-20)
(-0.867984 -0.0199784 -0)
(-0.867948 -0.0199767 -0)
(-0.750741 0.108218 0)
(-0.750729 0.108216 5.71045e-20)
(-0.73831 0.1063 0)
(-0.712664 -0.0973336 -0)
(-0.751819 -0.108373 -0)
(-0.659718 -0.0392804 0)
(-0.659985 -0.0392936 0)
(-0.660147 0.0393028 0)
(-0.659707 0.0392774 0)
(-0.791941 0.104721 0)
(-0.751727 0.10836 -7.41997e-20)
(-0.79071 0.104558 6.41294e-20)
(-0.791646 0.104682 -1.48932e-19)
(-0.791629 0.10468 0)
(-0.79071 -0.104558 -6.41294e-20)
(-0.712291 0.0972826 0)
(-0.712882 0.0973639 -9.5442e-20)
(-0.713606 -0.0974627 -8.64341e-20)
(-0.680606 -0.0732317 1.65264e-20)
(-0.791941 -0.104721 -0)
(-0.751727 -0.10836 7.41997e-20)
(-0.659718 0.0392804 6.01236e-21)
(-0.659985 0.0392936 0)
(-0.660147 -0.0393028 -0)
(-0.659707 -0.0392774 -6.24966e-21)
(-0.680713 -0.0732441 0)
(-0.659949 -0.0392899 0)
(-0.653072 0 0)
(-0.652646 0 0)
(-0.659675 0.0392781 0)
(-0.681702 0.0733521 0)
(-0.751819 0.108373 0)
(-0.827009 -0.0868081 -1.02222e-19)
(-0.827574 -0.086866 8.55581e-20)
(-0.827662 0.0868756 0)
(-0.826903 0.0867977 0)
(-0.854516 -0.0573032 -0)
(-0.827574 0.086866 -8.55581e-20)
(-0.827009 0.0868081 1.02222e-19)
(-0.826903 -0.0867977 -0)
(-0.827662 -0.0868756 -0)
(-0.680713 0.0732441 0)
(-0.659949 0.0392899 0)
(-0.653072 0 0)
(-0.652646 0 0)
(-0.659675 -0.0392781 -0)
(-0.681702 -0.0733521 -0)
)
;
    }
    frontAndBack
    {
        type            empty;
    }
    cyclic_top
    {
        type            cyclic;
    }
    cyclic_bottom
    {
        type            cyclic;
    }
}


// ************************************************************************* //
