/*--------------------------------*- C++ -*----------------------------------*\
  =========                 |
  \\      /  F ield         | OpenFOAM: The Open Source CFD Toolbox
   \\    /   O peration     | Website:  https://openfoam.org
    \\  /    A nd           | Version:  12
     \\/     M anipulation  |
\*---------------------------------------------------------------------------*/
FoamFile
{
    format      ascii;
    class       volScalarField;
    location    "220";
    object      p;
}
// * * * * * * * * * * * * * * * * * * * * * * * * * * * * * * * * * * * * * //

dimensions      [0 2 -2 0 0 0 0];

internalField   nonuniform List<scalar> 
6750
(
0.0215904
0.0215683
0.0215389
0.0213754
0.020347
0.0231087
0.0230722
0.0229448
0.0226789
0.0223196
0.0249014
0.0248423
0.0247117
0.0245136
0.0243606
0.026782
0.0266881
0.0265638
0.0264234
0.0263466
0.0286491
0.0285112
0.0283771
0.0282645
0.0282258
0.0304229
0.0302365
0.0300817
0.029979
0.0299576
0.032055
0.0318189
0.0316394
0.0315395
0.0315266
0.0335162
0.033231
0.0330268
0.0329278
0.03292
0.0347879
0.0344562
0.0342293
0.034131
0.0341269
0.0358598
0.0354855
0.0352391
0.0351421
0.0351407
0.0367286
0.0363171
0.0360551
0.0359601
0.0359605
0.0373974
0.0369551
0.0366818
0.0365891
0.0365906
0.0378756
0.0374086
0.0371291
0.0370388
0.0370406
0.0381773
0.0376914
0.0374121
0.037323
0.0373241
0.0383157
0.037824
0.03755
0.0374585
0.0374574
0.0383157
0.037824
0.03755
0.0374585
0.0374574
0.0381773
0.0376914
0.0374121
0.037323
0.0373241
0.0378756
0.0374086
0.0371291
0.0370388
0.0370406
0.0373974
0.0369551
0.0366818
0.0365891
0.0365906
0.0367286
0.0363171
0.036055
0.03596
0.0359605
0.0358598
0.0354855
0.0352391
0.0351421
0.0351407
0.0347879
0.0344562
0.0342292
0.034131
0.0341269
0.0335162
0.033231
0.0330268
0.0329277
0.03292
0.032055
0.0318189
0.0316393
0.0315395
0.0315266
0.0304229
0.0302365
0.0300816
0.029979
0.0299576
0.0286491
0.0285111
0.0283771
0.0282645
0.0282258
0.026782
0.0266881
0.0265638
0.0264234
0.0263465
0.0249014
0.0248422
0.0247116
0.0245136
0.0243606
0.0231087
0.0230722
0.0229448
0.0226789
0.0223196
0.0215904
0.0215684
0.0215389
0.0213754
0.0203469
0.0141681
0.0147607
0.016229
0.0173139
0.0181003
0.0187251
0.0192148
0.0195807
0.0198506
0.0200349
0.0200968
0.0201104
0.0200477
0.0199047
0.0196802
0.0193705
0.0189727
0.0184896
0.0179246
0.0172775
0.0165429
0.0158256
0.0150702
0.014292
0.0135111
0.0127402
0.0119889
0.0112718
0.0105989
0.00991596
0.0180777
0.0188734
0.0196731
0.0200739
0.0203027
0.0204439
0.0204997
0.0204792
0.0204112
0.0202929
0.0200831
0.0198959
0.0196904
0.0194694
0.0192316
0.0189678
0.0186656
0.018314
0.0179023
0.0174276
0.0169079
0.0162742
0.0156094
0.0149045
0.0141674
0.0134095
0.012639
0.0118703
0.0111435
0.0104387
0.0205582
0.0207418
0.0210567
0.0212105
0.0212862
0.0212943
0.0212229
0.0210826
0.0208948
0.0206239
0.0202742
0.0199389
0.0195756
0.0191952
0.0188039
0.0184014
0.0179844
0.0175477
0.0170857
0.0165936
0.0160702
0.0155151
0.0149346
0.0143281
0.0137004
0.0130576
0.0124006
0.0117403
0.0111635
0.0107465
0.022001
0.0217768
0.0219057
0.0219884
0.0219975
0.02193
0.0217811
0.0215676
0.0212982
0.0209039
0.0204576
0.0199981
0.0194965
0.0189693
0.0184286
0.0178819
0.0173348
0.0167903
0.0162491
0.01571
0.0151712
0.0146367
0.014103
0.0135672
0.0130291
0.012489
0.0119398
0.0113841
0.0109511
0.0108693
0.0230915
0.0227194
0.022766
0.022778
0.0227036
0.0225488
0.0223138
0.0220143
0.0216479
0.021138
0.0205956
0.0200159
0.0193888
0.0187343
0.0180677
0.0174022
0.016749
0.0161164
0.0155094
0.0149298
0.014377
0.0138501
0.0133459
0.0128595
0.0123871
0.011925
0.0114595
0.0109839
0.0106593
0.0108819
0.0240386
0.0236274
0.0236092
0.023541
0.0233808
0.0231394
0.0228182
0.022429
0.0219553
0.0213402
0.0206978
0.0200024
0.0192584
0.0184879
0.0177092
0.0169396
0.0161941
0.0154848
0.0148193
0.0142013
0.0136309
0.0131054
0.0126203
0.0121694
0.0117467
0.0113456
0.0109473
0.0105378
0.0103036
0.010799
0.0248764
0.0244714
0.024395
0.0242502
0.0240111
0.0236889
0.0232859
0.0228103
0.022224
0.0215151
0.0207726
0.0199673
0.0191135
0.0182348
0.0173523
0.0164866
0.0156559
0.0148747
0.014153
0.0134957
0.0129033
0.0123727
0.0118982
0.0114723
0.0110872
0.0107345
0.0103911
0.0100377
0.00988367
0.0106208
0.0256256
0.0252567
0.0251298
0.0249134
0.0246
0.0242002
0.0237191
0.0231591
0.0224597
0.0216671
0.0208246
0.0199142
0.0189564
0.0179758
0.0169961
0.0160405
0.0151297
0.0142803
0.0135038
0.0128063
0.0121887
0.0116476
0.0111765
0.0107667
0.0104094
0.0100945
0.0097951
0.00948867
0.00940564
0.0103508
0.0263081
0.0259967
0.0258256
0.0255403
0.025155
0.0246801
0.0241236
0.0234746
0.0226711
0.0217973
0.0208558
0.0198446
0.0187876
0.0177103
0.0166388
0.0155982
0.0146114
0.0136967
0.0128669
0.0121287
0.0114834
0.0109275
0.0104538
0.0100529
0.00971516
0.00942885
0.00916395
0.00889624
0.00887621
0.00999496
0.0269407
0.0267015
0.0264908
0.0261381
0.0256826
0.0251362
0.0245036
0.0237577
0.0228644
0.0219061
0.0208681
0.0197601
0.0186076
0.0174377
0.0162783
0.0151565
0.0140968
0.0131188
0.0122364
0.0114569
0.0107818
0.0102075
0.00972644
0.00932849
0.00900326
0.00873788
0.00849933
0.0082633
0.0082995
0.00955941
0.0275359
0.027379
0.0271322
0.0267126
0.0261872
0.0255713
0.0248623
0.0240155
0.0230427
0.0219969
0.0208643
0.019662
0.0184169
0.0171572
0.0159126
0.0147121
0.0135813
0.0125413
0.0116065
0.0107848
0.0100779
0.00948213
0.00898944
0.00858934
0.00827083
0.00801987
0.00780076
0.00759044
0.00767718
0.00904924
0.028104
0.0280363
0.0277565
0.0272694
0.0266742
0.0259909
0.025202
0.0242558
0.023208
0.0220726
0.0208466
0.0195517
0.0182155
0.0168678
0.0155397
0.0142618
0.013061
0.0119592
0.0109715
0.0101064
0.00936563
0.00874536
0.00823735
0.00783066
0.00751384
0.00727167
0.0070661
0.00687637
0.00700882
0.00846812
0.0286546
0.0286809
0.0283707
0.0278166
0.0271528
0.0263978
0.0255216
0.0244883
0.0233619
0.0221356
0.0208169
0.01943
0.0180034
0.0165683
0.0151574
0.0138024
0.0125315
0.0113673
0.0103258
0.00941554
0.00863856
0.00799089
0.00746403
0.00704673
0.0067271
0.00648879
0.00629155
0.00611798
0.00629195
0.00781789
0.0291974
0.0293194
0.0289815
0.0283601
0.0276273
0.026799
0.0258287
0.0247171
0.0235066
0.0221882
0.0207767
0.0192976
0.0177802
0.0162574
0.0147631
0.0133304
0.0119884
0.0107605
0.00966332
0.00870577
0.00788992
0.00721176
0.00666257
0.00623082
0.00590422
0.00566522
0.00547166
0.00531032
0.00552211
0.00709824
0.0297398
0.0299611
0.0295972
0.0289078
0.0281055
0.0271987
0.0261326
0.024945
0.0236456
0.0222335
0.0207278
0.0191548
0.0175453
0.0159332
0.0143541
0.0128419
0.0114268
0.0101331
0.00897774
0.00797007
0.00711226
0.00640024
0.0058251
0.00537505
0.00503743
0.00479347
0.00459923
0.00444645
0.0046928
0.0063065
0.030289
0.0306174
0.03023
0.0294722
0.0285932
0.0275972
0.0264445
0.0251752
0.0237822
0.0222738
0.0206714
0.019002
0.0172977
0.0155938
0.013927
0.0123326
0.0108415
0.00947879
0.00826195
0.00720068
0.00629726
0.00554759
0.00494257
0.00447021
0.00411747
0.00386429
0.00366511
0.00351738
0.00379526
0.00543728
0.0308553
0.0313007
0.0308913
0.0300619
0.0290998
0.0280049
0.0267712
0.0254113
0.0239202
0.0223118
0.0206087
0.018839
0.0170359
0.0152363
0.013478
0.0117973
0.0102262
0.00879036
0.00750787
0.00638874
0.0054354
0.00464372
0.00400446
0.00350544
0.00313324
0.00286643
0.00265797
0.00251169
0.00281828
0.00448218
0.0314553
0.0320246
0.0315949
0.0306842
0.0296292
0.0284372
0.0271174
0.0256585
0.0240636
0.0223499
0.0205407
0.0186652
0.016758
0.0148573
0.0130022
0.0112299
0.00957356
0.00805941
0.00670607
0.00552391
0.00451554
0.00367679
0.00299833
0.0024678
0.00207137
0.00178618
0.00156385
0.00141519
0.00174766
0.00342926
0.0321129
0.0327989
0.0323514
0.0313539
0.0301913
0.0289055
0.027488
0.0259221
0.0242166
0.0223904
0.0204678
0.0184794
0.016461
0.0144523
0.0124935
0.010623
0.00887473
0.00727576
0.00584522
0.00459383
0.00352435
0.00263264
0.00190923
0.00134165
0.000915622
0.000606759
0.000365464
0.000210149
0.000565565
0.00226237
0.0328467
0.0336431
0.0331786
0.0320833
0.0308038
0.0294188
0.0278917
0.0262093
0.024384
0.0224358
0.0203904
0.0182796
0.0161409
0.0140152
0.011944
0.00996691
0.00811857
0.00642686
0.00491143
0.00358336
0.00244556
0.00149392
0.000718871
0.000107793
-0.000354034
-0.000692618
-0.000958684
-0.00112559
-0.000750536
0.000960069
0.0336826
0.0345905
0.0340977
0.0328846
0.0314896
0.0299904
0.0283397
0.0265284
0.0245708
0.0224882
0.0203075
0.0180624
0.0157918
0.0135379
0.0113435
0.00924929
0.00729084
0.00549673
0.00388714
0.00247345
0.00125877
0.000238952
-0.000595648
-0.00125779
-0.0017627
-0.00213808
-0.00243571
-0.0026201
-0.00222938
-0.000505888
0.0346615
0.0356627
0.0351289
0.0337928
0.0322703
0.0306363
0.0288451
0.0268886
0.0247823
0.022549
0.0202174
0.0178226
0.0154053
0.013009
0.0106779
0.00845367
0.00637284
0.00446462
0.00274965
0.00123964
-6.21967e-05
-0.00116002
-0.00206359
-0.0027858
-0.00334246
-0.00376307
-0.00410038
-0.00430944
-0.00390815
-0.00217295
0.0358299
0.0369047
0.0363127
0.0348451
0.0331698
0.0313771
0.0294235
0.0273003
0.0250238
0.0226187
0.0201157
0.0175517
0.0149688
0.0124124
0.00992776
0.00755764
0.00533935
0.00330273
0.00146881
-0.00015047
-0.00155183
-0.00273948
-0.00372332
-0.00451645
-0.0051353
-0.00561131
-0.00599813
-0.00624086
-0.00583588
-0.00409143
0.0372556
0.0383768
0.0377097
0.0360826
0.0342213
0.0322399
0.0300948
0.0277757
0.0253004
0.0226959
0.0199949
0.0172362
0.014464
0.0117248
0.00906555
0.00652972
0.00415539
0.00197283
3.35173e-06
-0.00174098
-0.0032569
-0.00454876
-0.00562665
-0.00650389
-0.00719769
-0.0077415
-0.00818989
-0.00847767
-0.00807872
-0.0063303
0.0390515
0.0401731
0.0393916
0.0375601
0.0354711
0.0332603
0.0308833
0.0283289
0.0256164
0.0227754
0.0198412
0.0168548
0.0138621
0.0109115
0.00805076
0.00532438
0.00277079
0.00042051
-0.00170507
-0.00359396
-0.00524303
-0.00665685
-0.00784577
-0.00882344
-0.00960793
-0.0102349
-0.0107597
-0.0111072
-0.0107286
-0.00898707
0.0413448
0.0424171
0.0414582
0.0393611
0.0369855
0.0344876
0.031822
0.0289769
0.0259741
0.022846
0.0196309
0.0163724
0.0131184
0.00991868
0.006822
0.00387324
0.00111091
-0.00143466
-0.00374234
-0.00580042
-0.00760608
-0.00916421
-0.0104855
-0.0115839
-0.0124786
-0.0132074
-0.0138268
-0.0142524
-0.0139157
-0.0122022
0.0443913
0.0453028
0.0440655
0.0416128
0.038864
0.0359933
0.0329555
0.0297394
0.0263698
0.0228832
0.019321
0.0157298
0.0121594
0.00866072
0.00528282
0.00207024
-0.000939246
-0.00371617
-0.00624023
-0.00850037
-0.0104942
-0.012227
-0.0137095
-0.0149563
-0.0159871
-0.0168419
-0.017578
-0.0181051
-0.0178435
-0.0161989
0.0485735
0.0491125
0.0474214
0.0444759
0.0412279
0.0378607
0.0343307
0.0306291
0.0267851
0.0228401
0.0188396
0.0148334
0.0108731
0.00700994
0.00329235
-0.000236813
-0.00354186
-0.00659547
-0.00937913
-0.011883
-0.014106
-0.0160536
-0.0177367
-0.0191699
-0.0203738
-0.0213887
-0.022272
-0.0229338
-0.0228058
-0.0213155
0.0547637
0.0545556
0.0521194
0.0484732
0.0445197
0.0404312
0.0361765
0.0317608
0.027225
0.0226199
0.0179986
0.013415
0.00892224
0.00457054
0.000405108
-0.00353541
-0.00721991
-0.0106252
-0.0137354
-0.0165412
-0.0190446
-0.0212643
-0.0231962
-0.0248548
-0.0262612
-0.0274536
-0.0284851
-0.0292812
-0.0293498
-0.0281804
0.0655711
0.0636762
0.0596854
0.0548087
0.0496912
0.0444292
0.0390193
0.033497
0.0279201
0.0223491
0.0168413
0.0114498
0.00622242
0.00120053
-0.00358152
-0.00809636
-0.0123232
-0.0162473
-0.0198604
-0.0231602
-0.0261428
-0.0287961
-0.0311457
-0.0332
-0.0349701
-0.0364816
-0.0377798
-0.0388539
-0.0394082
-0.0388884
0.0178345
0.018772
0.0205194
0.0219008
0.0230542
0.0241262
0.0251505
0.026136
0.0270927
0.0280301
0.0289564
0.0298793
0.0308071
0.0317482
0.0327111
0.0337061
0.0347461
0.0358474
0.0370288
0.0383118
0.039724
0.0413048
0.0431019
0.045181
0.0476311
0.0505874
0.0542352
0.0587873
0.0644713
0.0718084
0.0221543
0.0231294
0.0242536
0.0251886
0.0260215
0.0268141
0.027578
0.0283174
0.0290397
0.0297528
0.0304648
0.0311836
0.0319175
0.0326756
0.0334673
0.0343044
0.0352007
0.0361732
0.037242
0.038432
0.0397755
0.0413157
0.0431091
0.045234
0.0477999
0.0509696
0.0549775
0.0601456
0.0669614
0.0760131
0.0244614
0.0253296
0.0261715
0.0269218
0.0276491
0.0283698
0.0290809
0.0297832
0.0304817
0.0311821
0.0318906
0.0326137
0.0333589
0.0341342
0.0349492
0.0358154
0.0367467
0.0377604
0.0388779
0.0401261
0.0415403
0.0431674
0.0450704
0.0473366
0.0500899
0.0535098
0.0578622
0.063526
0.0711522
0.0814323
0.026473
0.0272325
0.0279592
0.0286301
0.0292936
0.0299598
0.0306276
0.0312998
0.0319814
0.0326778
0.0333948
0.0341385
0.034916
0.0357354
0.0366062
0.0375402
0.0385516
0.0396584
0.0408827
0.0422531
0.0438073
0.0455948
0.047683
0.050165
0.0531723
0.0568942
0.0616114
0.0677194
0.0759602
0.0870715
0.0283501
0.0290169
0.0296543
0.0302544
0.0308582
0.0314757
0.0321078
0.032757
0.0334276
0.0341244
0.0348525
0.0356179
0.0364274
0.0372893
0.0382134
0.0392117
0.0402991
0.0414944
0.0428211
0.0443093
0.0459988
0.047942
0.0502097
0.0528997
0.0561491
0.0601549
0.0652078
0.0717141
0.0804996
0.0923596
0.0300639
0.0306489
0.0312106
0.0317513
0.032308
0.0328897
0.0334969
0.0341319
0.0347981
0.0354999
0.0362421
0.0370304
0.0378715
0.0387737
0.039747
0.0408039
0.0419596
0.0432337
0.0446507
0.0462423
0.0480498
0.0501282
0.0525513
0.0554205
0.0588779
0.0631271
0.0684682
0.0753209
0.0845923
0.0971601
0.0316118
0.0321238
0.0326213
0.0331137
0.0336337
0.0341886
0.0347785
0.0354052
0.0360718
0.0367822
0.0375407
0.038353
0.0392257
0.0401669
0.0411869
0.0422982
0.0435167
0.0448623
0.0463606
0.0480442
0.0499561
0.0521528
0.0547107
0.0577343
0.0613696
0.0658257
0.0714118
0.0785609
0.0882466
0.101443
0.032989
0.0334353
0.033878
0.0343309
0.0348221
0.0353569
0.0359349
0.0365577
0.0372278
0.0379486
0.0387244
0.0395604
0.0404631
0.0414407
0.0425036
0.0436644
0.0449395
0.0463491
0.0479195
0.0496844
0.0516877
0.0539875
0.056662
0.059818
0.063605
0.0682366
0.0740295
0.0814291
0.0914541
0.105182
0.0341871
0.0345745
0.0349706
0.0353917
0.0358606
0.0363805
0.0369508
0.0375725
0.0382478
0.0389797
0.0397722
0.0406302
0.0415602
0.0425705
0.0436713
0.0448757
0.0462
0.0476652
0.0492978
0.0511323
0.0532136
0.0556009
0.0583739
0.0616413
0.0655552
0.0703328
0.0762974
0.0839045
0.0941978
0.108364
0.035199
0.0355347
0.0358923
0.0362883
0.0367402
0.0372494
0.0378148
0.0384372
0.0391183
0.0398608
0.0406684
0.041546
0.0424998
0.0435382
0.0446714
0.0459126
0.0472784
0.0487901
0.0504746
0.052367
0.0545128
0.0569722
0.0598259
0.0631843
0.0672014
0.0720973
0.0782007
0.0859756
0.0964729
0.110994
0.0360219
0.0363138
0.0366404
0.0370173
0.0374566
0.0379582
0.0385209
0.0391448
0.0398315
0.0405834
0.041404
0.0422979
0.0432716
0.044333
0.0454927
0.0467639
0.0481633
0.0497125
0.0514387
0.0533774
0.0555747
0.0580913
0.0610091
0.0644393
0.0685376
0.0735263
0.0797384
0.0876448
0.0982896
0.113093
0.036658
0.0369144
0.0372176
0.0375805
0.0380108
0.0385072
0.0390683
0.039694
0.0403856
0.0411452
0.0419762
0.0428831
0.0438723
0.0449518
0.046132
0.0474264
0.0488517
0.0504296
0.0521878
0.0541618
0.0563982
0.0589584
0.0619245
0.065409
0.0695685
0.0746268
0.0809203
0.0889256
0.0996701
0.114693
0.0371143
0.0373444
0.0376309
0.0379843
0.0384085
0.0389015
0.0394618
0.0400892
0.0407846
0.04155
0.0423886
0.0433051
0.0443055
0.0453981
0.0465931
0.0479041
0.049348
0.0509465
0.0527274
0.0547266
0.0569909
0.0595819
0.0625824
0.0661051
0.0703078
0.0754151
0.0817657
0.0898408
0.100645
0.115836
0.0374026
0.0376156
0.0378916
0.0382391
0.0386597
0.0391508
0.0397108
0.0403393
0.0410373
0.0418065
0.0426502
0.0435728
0.0445805
0.0456814
0.0468859
0.0482075
0.0496632
0.0512748
0.0530702
0.0550854
0.0573672
0.0599778
0.0629999
0.0665468
0.0707766
0.0759146
0.0823011
0.0904199
0.101252
0.116565
0.037538
0.0377427
0.0380137
0.0383586
0.0387776
0.0392678
0.0398277
0.0404569
0.0411562
0.0419273
0.0427734
0.043699
0.0447102
0.0458151
0.0470242
0.0483509
0.0498123
0.0514301
0.0532324
0.0552552
0.0575455
0.0601654
0.0631978
0.0667563
0.070999
0.0761515
0.0825551
0.0906946
0.101534
0.116917
0.037538
0.0377427
0.0380137
0.0383586
0.0387776
0.0392678
0.0398277
0.0404569
0.0411562
0.0419273
0.0427734
0.043699
0.0447102
0.0458151
0.0470242
0.0483509
0.0498123
0.0514301
0.0532324
0.0552552
0.0575455
0.0601653
0.0631978
0.0667562
0.070999
0.0761515
0.0825551
0.0906946
0.101534
0.116917
0.0374026
0.0376156
0.0378916
0.0382391
0.0386597
0.0391508
0.0397108
0.0403393
0.0410373
0.0418065
0.0426502
0.0435728
0.0445805
0.0456814
0.0468859
0.0482075
0.0496632
0.0512748
0.0530701
0.0550853
0.0573672
0.0599777
0.0629998
0.0665467
0.0707765
0.0759144
0.0823009
0.0904197
0.101252
0.116564
0.0371143
0.0373444
0.0376309
0.0379843
0.0384085
0.0389015
0.0394618
0.0400892
0.0407845
0.04155
0.0423886
0.0433051
0.0443055
0.045398
0.0465931
0.047904
0.0493479
0.0509464
0.0527273
0.0547265
0.0569908
0.0595818
0.0625822
0.066105
0.0703076
0.0754148
0.0817654
0.0898404
0.100645
0.115835
0.036658
0.0369144
0.0372175
0.0375805
0.0380108
0.0385072
0.0390683
0.039694
0.0403856
0.0411452
0.0419762
0.0428831
0.0438722
0.0449517
0.0461319
0.0474263
0.0488516
0.0504295
0.0521876
0.0541616
0.056398
0.0589581
0.0619243
0.0654087
0.0695682
0.0746265
0.0809199
0.0889251
0.0996696
0.114693
0.0360219
0.0363137
0.0366404
0.0370173
0.0374566
0.0379582
0.0385208
0.0391448
0.0398315
0.0405834
0.0414039
0.0422979
0.0432715
0.0443329
0.0454926
0.0467638
0.0481632
0.0497123
0.0514385
0.0533772
0.0555744
0.0580911
0.0610088
0.0644389
0.0685372
0.0735259
0.0797378
0.0876442
0.0982889
0.113092
0.035199
0.0355347
0.0358922
0.0362883
0.0367402
0.0372494
0.0378148
0.0384372
0.0391183
0.0398608
0.0406684
0.0415459
0.0424997
0.0435381
0.0446712
0.0459124
0.0472782
0.0487899
0.0504744
0.0523668
0.0545125
0.0569719
0.0598255
0.0631839
0.0672009
0.0720968
0.0782001
0.0859749
0.096472
0.110993
0.034187
0.0345745
0.0349706
0.0353917
0.0358606
0.0363805
0.0369508
0.0375725
0.0382478
0.0389797
0.0397721
0.0406301
0.0415601
0.0425704
0.0436712
0.0448755
0.0461998
0.0476649
0.0492975
0.051132
0.0532133
0.0556005
0.0583735
0.0616408
0.0655546
0.0703321
0.0762966
0.0839036
0.0941967
0.108363
0.032989
0.0334353
0.033878
0.0343308
0.0348221
0.0353569
0.0359349
0.0365576
0.0372277
0.0379486
0.0387243
0.0395603
0.040463
0.0414406
0.0425034
0.0436642
0.0449392
0.0463489
0.0479192
0.0496841
0.0516873
0.053987
0.0566615
0.0598174
0.0636044
0.0682358
0.0740287
0.0814281
0.0914528
0.10518
0.0316118
0.0321237
0.0326213
0.0331136
0.0336337
0.0341886
0.0347785
0.0354051
0.0360717
0.0367821
0.0375407
0.0383529
0.0392256
0.0401668
0.0411867
0.042298
0.0435164
0.044862
0.0463602
0.0480438
0.0499556
0.0521523
0.0547102
0.0577336
0.0613689
0.0658249
0.0714108
0.0785598
0.0882452
0.101441
0.0300639
0.0306489
0.0312106
0.0317513
0.032308
0.0328897
0.0334969
0.0341318
0.0347981
0.0354999
0.036242
0.0370303
0.0378714
0.0387736
0.0397469
0.0408037
0.0419594
0.0432334
0.0446504
0.0462419
0.0480494
0.0501277
0.0525507
0.0554198
0.0588771
0.0631261
0.0684671
0.0753196
0.0845908
0.0971582
0.02835
0.0290169
0.0296543
0.0302543
0.0308581
0.0314757
0.0321077
0.0327569
0.0334276
0.0341244
0.0348525
0.0356178
0.0364273
0.0372892
0.0382132
0.0392114
0.0402989
0.0414941
0.0428207
0.0443089
0.0459983
0.0479414
0.0502091
0.0528989
0.0561482
0.0601539
0.0652066
0.0717127
0.080498
0.0923575
0.026473
0.0272324
0.0279592
0.0286301
0.0292936
0.0299598
0.0306276
0.0312998
0.0319814
0.0326778
0.0333947
0.0341384
0.0349159
0.0357352
0.036606
0.03754
0.0385514
0.0396581
0.0408823
0.0422527
0.0438067
0.0455942
0.0476823
0.0501643
0.0531714
0.0568931
0.0616102
0.0677179
0.0759584
0.0870692
0.0244613
0.0253296
0.0261715
0.0269218
0.0276491
0.0283698
0.0290809
0.0297832
0.0304817
0.0311821
0.0318905
0.0326137
0.0333588
0.0341341
0.0349491
0.0358152
0.0367464
0.0377601
0.0388775
0.0401257
0.0415398
0.0431668
0.0450697
0.0473358
0.050089
0.0535086
0.0578609
0.0635244
0.0711502
0.0814299
0.0221542
0.0231293
0.0242536
0.0251886
0.0260215
0.0268141
0.027578
0.0283174
0.0290397
0.0297528
0.0304648
0.0311835
0.0319175
0.0326755
0.0334672
0.0343042
0.0352005
0.0361729
0.0372417
0.0384316
0.039775
0.0413151
0.0431084
0.0452332
0.0477989
0.0509684
0.0549762
0.0601441
0.0669594
0.0760106
0.0178343
0.0187718
0.0205193
0.0219007
0.0230541
0.0241261
0.0251504
0.0261359
0.0270926
0.02803
0.0289563
0.0298792
0.0308069
0.031748
0.0327109
0.0337059
0.0347459
0.0358471
0.0370285
0.0383114
0.0397235
0.0413043
0.0431012
0.0451802
0.0476302
0.0505863
0.0542339
0.0587858
0.0644693
0.0718058
0.0655683
0.0636734
0.0596826
0.0548058
0.0496883
0.0444263
0.0390164
0.0334941
0.0279173
0.0223463
0.0168385
0.0114471
0.00621977
0.00119798
-0.00358397
-0.00809868
-0.0123254
-0.0162493
-0.0198623
-0.023162
-0.0261444
-0.0287976
-0.031147
-0.0332013
-0.0349713
-0.0364827
-0.0377808
-0.0388547
-0.039409
-0.0388891
0.0547615
0.0545534
0.0521172
0.048471
0.0445174
0.0404288
0.0361741
0.0317584
0.0272226
0.0226175
0.0179963
0.0134127
0.00892002
0.00456839
0.000403049
-0.00353737
-0.00722176
-0.0106269
-0.013737
-0.0165427
-0.019046
-0.0212656
-0.0231974
-0.0248558
-0.0262622
-0.0274545
-0.0284859
-0.0292819
-0.0293505
-0.0281811
0.0485718
0.0491107
0.0474196
0.0444741
0.041226
0.0378588
0.0343288
0.0306271
0.0267832
0.0228381
0.0188377
0.0148315
0.0108712
0.00700812
0.0032906
-0.000238478
-0.00354343
-0.00659696
-0.00938052
-0.0118843
-0.0141071
-0.0160547
-0.0177377
-0.0191709
-0.0203746
-0.0213895
-0.0222727
-0.0229344
-0.0228064
-0.0213161
0.0443898
0.0453013
0.044064
0.0416112
0.0388624
0.0359916
0.0329538
0.0297377
0.0263681
0.0228815
0.0193194
0.0157282
0.0121578
0.00865916
0.00528132
0.0020688
-0.000940601
-0.00371744
-0.00624141
-0.00850147
-0.0104953
-0.0122279
-0.0137104
-0.0149571
-0.0159878
-0.0168425
-0.0175785
-0.0181056
-0.017844
-0.0161995
0.0413435
0.0424159
0.0414569
0.0393597
0.0369841
0.0344862
0.0318206
0.0289755
0.0259726
0.0228446
0.0196295
0.016371
0.013117
0.00991733
0.0068207
0.003872
0.00110974
-0.00143575
-0.00374336
-0.00580136
-0.00760694
-0.009165
-0.0104862
-0.0115846
-0.0124792
-0.0132079
-0.0138273
-0.0142529
-0.0139161
-0.0122027
0.0390504
0.0401721
0.0393905
0.037559
0.0354699
0.0332591
0.0308821
0.0283276
0.0256152
0.0227742
0.0198399
0.0168535
0.0138609
0.0109103
0.00804964
0.00532331
0.00276978
0.000419568
-0.00170595
-0.00359476
-0.00524376
-0.00665751
-0.00784637
-0.00882398
-0.00960841
-0.0102353
-0.0107601
-0.0111075
-0.0107289
-0.00898743
0.0372547
0.038376
0.0377088
0.0360817
0.0342203
0.0322389
0.0300937
0.0277746
0.0252994
0.0226948
0.0199938
0.0172351
0.0144629
0.0117238
0.00906457
0.0065288
0.00415452
0.00197202
2.60455e-06
-0.00174166
-0.00325752
-0.00454932
-0.00562714
-0.00650433
-0.00719807
-0.00774184
-0.00819019
-0.00847792
-0.00807896
-0.00633059
0.0358291
0.0369039
0.036312
0.0348443
0.0331689
0.0313762
0.0294226
0.0272994
0.0250229
0.0226178
0.0201147
0.0175507
0.0149679
0.0124115
0.00992691
0.00755684
0.0053386
0.00330203
0.00146817
-0.000151048
-0.00155234
-0.00273994
-0.00372373
-0.00451681
-0.00513561
-0.00561158
-0.00599836
-0.00624105
-0.00583606
-0.00409166
0.0346609
0.0356621
0.0351282
0.0337921
0.0322696
0.0306355
0.0288443
0.0268878
0.0247815
0.0225482
0.0202165
0.0178218
0.0154045
0.0130082
0.0106772
0.00845298
0.00637219
0.00446402
0.00274911
0.00123916
-6.26293e-05
-0.0011604
-0.00206392
-0.00278608
-0.0033427
-0.00376328
-0.00410055
-0.00430958
-0.00390828
-0.00217312
0.0336821
0.03459
0.0340971
0.032884
0.031489
0.0299897
0.028339
0.0265277
0.0245701
0.0224875
0.0203068
0.0180617
0.0157911
0.0135372
0.0113429
0.00924869
0.00729029
0.00549623
0.00388668
0.00247305
0.00125841
0.000238644
-0.000595911
-0.00125801
-0.00176288
-0.00213823
-0.00243583
-0.00262019
-0.00222946
-0.000506003
0.0328463
0.0336427
0.0331781
0.0320828
0.0308033
0.0294183
0.0278911
0.0262087
0.0243834
0.0224352
0.0203897
0.018279
0.0161403
0.0140146
0.0119435
0.0099664
0.0081181
0.00642643
0.00491105
0.00358302
0.00244528
0.00149368
0.000718669
0.000107628
-0.000354165
-0.00069272
-0.000958759
-0.00112564
-0.000750581
0.00096
0.0321125
0.0327985
0.032351
0.0313535
0.0301909
0.0289051
0.0274875
0.0259216
0.0242161
0.0223899
0.0204673
0.0184788
0.0164605
0.0144518
0.012493
0.0106226
0.00887434
0.00727541
0.00584492
0.00459357
0.00352413
0.00263246
0.00190909
0.00134153
0.000915537
0.0006067
0.000365427
0.000210131
0.000565554
0.00226234
0.0314551
0.0320243
0.0315946
0.0306839
0.0296289
0.0284368
0.027117
0.0256581
0.0240632
0.0223494
0.0205402
0.0186647
0.0167576
0.0148569
0.0130018
0.0112296
0.00957324
0.00805912
0.00670582
0.00552371
0.00451537
0.00367666
0.00299823
0.00246772
0.00207133
0.00178616
0.00156385
0.0014152
0.00174768
0.00342927
0.0308551
0.0313005
0.0308911
0.0300616
0.0290995
0.0280046
0.0267709
0.0254109
0.0239198
0.0223114
0.0206083
0.0188386
0.0170356
0.0152359
0.0134777
0.011797
0.0102259
0.00879014
0.00750768
0.00638859
0.00543528
0.00464363
0.0040044
0.00350541
0.00313323
0.00286644
0.002658
0.00251173
0.00281832
0.00448222
0.0302889
0.0306172
0.0302298
0.029472
0.028593
0.027597
0.0264443
0.0251749
0.023782
0.0222735
0.0206711
0.0190017
0.0172974
0.0155935
0.0139268
0.0123323
0.0108413
0.00947862
0.00826182
0.00720058
0.00629719
0.00554755
0.00494255
0.00447021
0.0041175
0.00386433
0.00366516
0.00351744
0.00379532
0.00543735
0.0297397
0.029961
0.029597
0.0289076
0.0281053
0.0271985
0.0261323
0.0249448
0.0236453
0.0222332
0.0207275
0.0191546
0.0175451
0.015933
0.0143539
0.0128417
0.0114267
0.010133
0.00897766
0.00797002
0.00711223
0.00640024
0.00582512
0.00537509
0.00503749
0.00479354
0.0045993
0.00444653
0.00469288
0.00630659
0.0291974
0.0293193
0.0289814
0.02836
0.0276272
0.0267989
0.0258286
0.0247169
0.0235064
0.0221881
0.0207765
0.0192974
0.01778
0.0162572
0.014763
0.0133303
0.0119883
0.0107605
0.00966328
0.00870575
0.00788993
0.00721179
0.00666263
0.00623089
0.0059043
0.00566531
0.00547176
0.00531041
0.00552221
0.00709836
0.0286546
0.0286809
0.0283706
0.0278165
0.0271527
0.0263977
0.0255215
0.0244881
0.0233618
0.0221355
0.0208168
0.0194299
0.0180033
0.0165682
0.0151573
0.0138023
0.0125315
0.0113673
0.0103258
0.00941557
0.00863861
0.00799096
0.00746412
0.00704683
0.00672721
0.0064889
0.00629166
0.00611809
0.00629205
0.00781802
0.0281041
0.0280363
0.0277565
0.0272694
0.0266741
0.0259908
0.025202
0.0242558
0.0232079
0.0220726
0.0208466
0.0195517
0.0182155
0.0168677
0.0155397
0.0142618
0.013061
0.0119592
0.0109715
0.0101065
0.00936572
0.00874546
0.00823746
0.00783078
0.00751397
0.0072718
0.00706622
0.00687649
0.00700893
0.00846827
0.027536
0.027379
0.0271322
0.0267126
0.0261872
0.0255713
0.0248623
0.0240155
0.0230427
0.0219969
0.0208643
0.019662
0.0184169
0.0171572
0.0159126
0.0147121
0.0135814
0.0125414
0.0116066
0.0107849
0.0100781
0.00948226
0.00898958
0.00858948
0.00827098
0.00802001
0.0078009
0.00759057
0.00767731
0.00904939
0.0269408
0.0267015
0.0264908
0.0261381
0.0256826
0.0251363
0.0245037
0.0237577
0.0228644
0.0219061
0.0208682
0.0197601
0.0186077
0.0174378
0.0162783
0.0151566
0.0140969
0.0131189
0.0122365
0.011457
0.010782
0.0102077
0.00972661
0.00932866
0.00900343
0.00873804
0.00849948
0.00826344
0.00829963
0.00955956
0.0263082
0.0259967
0.0258257
0.0255404
0.0251551
0.0246802
0.0241237
0.0234747
0.0226712
0.0217974
0.0208559
0.0198447
0.0187877
0.0177105
0.0166389
0.0155983
0.0146116
0.0136969
0.0128671
0.0121289
0.0114836
0.0109277
0.010454
0.0100531
0.00971534
0.00942902
0.00916411
0.00889638
0.00887634
0.00999511
0.0256257
0.0252567
0.0251299
0.0249135
0.0246001
0.0242002
0.0237192
0.0231592
0.0224599
0.0216672
0.0208247
0.0199144
0.0189566
0.017976
0.0169963
0.0160407
0.0151299
0.0142805
0.013504
0.0128065
0.0121889
0.0116478
0.0111767
0.0107669
0.0104096
0.0100946
0.00979527
0.00948881
0.00940576
0.0103509
0.0248765
0.0244715
0.0243951
0.0242503
0.0240112
0.023689
0.023286
0.0228105
0.0222242
0.0215153
0.0207728
0.0199675
0.0191137
0.018235
0.0173525
0.0164868
0.0156561
0.014875
0.0141533
0.0134959
0.0129035
0.012373
0.0118985
0.0114725
0.0110874
0.0107347
0.0103913
0.0100379
0.00988379
0.0106209
0.0240387
0.0236275
0.0236092
0.0235411
0.0233809
0.0231396
0.0228183
0.0224292
0.0219556
0.0213404
0.020698
0.0200026
0.0192587
0.0184882
0.0177095
0.0169399
0.0161945
0.0154851
0.0148196
0.0142016
0.0136312
0.0131057
0.0126206
0.0121697
0.0117469
0.0113457
0.0109475
0.0105379
0.0103037
0.0107991
0.0230916
0.0227195
0.022766
0.0227781
0.0227038
0.022549
0.022314
0.0220145
0.0216482
0.0211383
0.0205959
0.0200162
0.0193892
0.0187346
0.018068
0.0174026
0.0167494
0.0161167
0.0155098
0.0149301
0.0143773
0.0138504
0.0133462
0.0128597
0.0123873
0.0119252
0.0114597
0.010984
0.0106594
0.010882
0.022001
0.0217768
0.0219057
0.0219885
0.0219976
0.0219302
0.0217813
0.0215678
0.0212985
0.0209042
0.0204579
0.0199985
0.0194968
0.0189697
0.018429
0.0178823
0.0173353
0.0167907
0.0162495
0.0157104
0.0151716
0.014637
0.0141033
0.0135675
0.0130293
0.0124892
0.01194
0.0113842
0.0109512
0.0108693
0.0205582
0.0207418
0.0210567
0.0212106
0.0212864
0.0212945
0.0212231
0.0210829
0.0208951
0.0206242
0.0202746
0.0199393
0.019576
0.0191957
0.0188044
0.0184019
0.0179849
0.0175482
0.0170862
0.016594
0.0160706
0.0155154
0.0149349
0.0143284
0.0137007
0.0130578
0.0124008
0.0117404
0.0111635
0.0107466
0.0180775
0.0188733
0.0196731
0.0200739
0.0203028
0.0204441
0.0205
0.0204795
0.0204115
0.0202933
0.0200835
0.0198963
0.0196909
0.0194699
0.0192321
0.0189683
0.0186661
0.0183145
0.0179028
0.0174281
0.0169082
0.0162747
0.0156098
0.0149048
0.0141676
0.0134097
0.0126392
0.0118704
0.0111435
0.0104386
0.0141676
0.0147603
0.0162287
0.0173137
0.0181002
0.0187252
0.019215
0.0195809
0.0198509
0.0200353
0.0200972
0.0201109
0.0200482
0.0199053
0.0196808
0.0193711
0.0189733
0.0184902
0.0179251
0.017278
0.0165435
0.015826
0.0150706
0.0142923
0.0135113
0.0127404
0.011989
0.0112719
0.0105989
0.00991586
-0.0405661
-0.0326233
-0.0266256
-0.0217553
-0.0177352
-0.0143885
-0.0115653
-0.00915611
-0.0070779
-0.0052674
-0.00367595
-0.0022656
-0.00100632
0.000125926
0.00115063
0.00208376
0.00293845
0.00372549
0.00445365
0.00512977
0.00575881
0.00634375
0.00688549
0.00738271
0.00783153
0.00822363
0.00854904
0.00880541
0.00899428
0.00904027
-0.0407172
-0.0326472