/*--------------------------------*- C++ -*----------------------------------*\
  =========                 |
  \\      /  F ield         | OpenFOAM: The Open Source CFD Toolbox
   \\    /   O peration     | Website:  https://openfoam.org
    \\  /    A nd           | Version:  12
     \\/     M anipulation  |
\*---------------------------------------------------------------------------*/
FoamFile
{
    format      ascii;
    class       surfaceScalarField;
    location    "220";
    object      phi;
}
// * * * * * * * * * * * * * * * * * * * * * * * * * * * * * * * * * * * * * //

dimensions      [0 3 -1 0 0 0 0];

internalField   nonuniform List<scalar> 
13275
(
0.369023
-0.00462569
0.369481
-0.0114849
0.369794
-0.0154056
0.369909
-0.0173599
-0.0180298
0.369849
0.351098
-0.00489877
0.35146
-0.011847
0.351681
-0.0156264
0.351642
-0.017321
-0.0176322
0.351245
0.334002
-0.00502166
0.334077
-0.0119227
0.333968
-0.0155172
0.333634
-0.0169869
-0.0170937
0.333096
0.317721
-0.00499223
0.317511
-0.0117119
0.317103
-0.0151095
0.316533
-0.0164168
-0.0164193
0.315858
0.302245
-0.00483544
0.30179
-0.0112568
0.301125
-0.0144443
0.300336
-0.015628
-0.0155825
0.299499
0.287534
-0.00457524
0.286872
-0.010595
0.285978
-0.0135502
0.284977
-0.014627
-0.0145634
0.283958
0.273546
-0.00422894
0.272706
-0.00975508
0.271606
-0.0124502
0.270403
-0.0134233
-0.0133577
0.269197
0.260244
-0.00381027
0.259251
-0.00876292
0.25797
-0.011169
0.256582
-0.0120349
-0.0119751
0.255199
0.247593
-0.00333232
0.246476
-0.00764553
0.245043
-0.0097363
0.243497
-0.0104887
-0.0104383
0.24196
0.235564
-0.00280886
0.234351
-0.00643252
0.232802
-0.0081872
0.231133
-0.00881957
-0.00877962
0.229475
0.224129
-0.00225427
0.222852
-0.00515528
0.221225
-0.00655996
0.219472
-0.00706723
-0.00703728
0.21773
0.213259
-0.00168298
0.211949
-0.00384522
0.210283
-0.00489344
0.208488
-0.00527259
-0.00525155
0.206702
0.202927
-0.00110887
0.201614
-0.00253184
0.199945
-0.0032244
0.198147
-0.00347464
-0.00346125
0.196357
0.193107
-0.000544515
0.191817
-0.0012416
0.190177
-0.00158511
0.18841
-0.00170767
-0.00170094
0.18665
0.183771
1.08956e-07
0.18253
3.02136e-07
0.180944
4.3075e-07
0.179236
4.98885e-07
5.22751e-07
0.177534
0.183771
0.000544734
0.18253
0.00124221
0.180944
0.00158597
0.179236
0.00170866
0.00170199
0.177534
0.193107
0.00110909
0.191817
0.00253244
0.190177
0.00322525
0.18841
0.00347564
0.00346229
0.18665
0.202927
0.00168319
0.201614
0.00384582
0.199945
0.0048943
0.198147
0.00527358
0.00525259
0.196357
0.213259
0.00225448
0.211949
0.00515588
0.210283
0.00656082
0.208488
0.00706822
0.00703832
0.206702
0.224129
0.00280908
0.222852
0.00643312
0.221225
0.00818806
0.219472
0.00882056
0.00878065
0.21773
0.235564
0.00333254
0.234351
0.00764613
0.232802
0.00973715
0.231133
0.0104896
0.0104393
0.229475
0.247593
0.00381048
0.246476
0.00876352
0.245043
0.0111698
0.243497
0.0120359
0.0119761
0.24196
0.260244
0.00422916
0.259251
0.00975568
0.25797
0.0124511
0.256582
0.0134243
0.0133587
0.255199
0.273546
0.00457546
0.272706
0.0105956
0.271606
0.0135511
0.270403
0.014628
0.0145645
0.269197
0.287534
0.00483566
0.286872
0.0112575
0.285978
0.0144452
0.284977
0.015629
0.0155835
0.283958
0.302245
0.00499245
0.30179
0.0117126
0.301125
0.0151104
0.300336
0.0164178
0.0164204
0.299499
0.317721
0.00502188
0.317511
0.0119233
0.317103
0.0155181
0.316533
0.016988
0.0170948
0.315858
0.334002
0.00489899
0.334077
0.0118476
0.333968
0.0156273
0.333634
0.0173221
0.0176334
0.333095
0.351098
0.00462591
0.35146
0.0114856
0.351681
0.0154065
0.351642
0.017361
0.0180311
0.351245
0.369023
0.369481
0.369794
0.369909
0.369849
0.197356
-0.0505292
-0.197396
0.196943
-0.0577695
0.195918
-0.0640405
0.194263
-0.0695577
0.192034
-0.0742857
0.189301
-0.078159
0.186137
-0.0810867
0.182617
-0.0829457
0.178829
-0.0835919
0.174887
-0.0829761
0.170876
-0.0809019
0.166951
-0.0772317
0.163258
-0.0720488
0.15994
-0.065444
0.157127
-0.0575953
0.154926
-0.0487585
0.153408
-0.0392453
0.152606
-0.0293936
0.152513
-0.0195392
0.153091
-0.00999008
0.154249
-0.000974678
0.15595
0.00729373
0.158084
0.0147275
0.160558
0.0212338
0.163286
0.0267933
0.166186
0.0314256
0.16919
0.0351765
0.172235
0.0381079
0.175262
0.0402899
0.0417884
0.178182
0.194725
-0.0506482
-0.194606
0.194061
-0.0571054
0.192707
-0.0626866
0.190762
-0.0676134
0.188305
-0.0718288
0.185408
-0.0752618
0.182138
-0.077816
0.178563
-0.0793712
0.17477
-0.0797989
0.170855
-0.0790614
0.166899
-0.0769451
0.163047
-0.0733804
0.159434
-0.0684352
0.156188
-0.0621984
0.153429
-0.0548362
0.151253
-0.0465824
0.149726
-0.0377182
0.14888
-0.028548
0.148713
-0.0193717
0.149184
-0.0104616
0.150252
-0.00204271
0.151826
0.00571971
0.153839
0.0127146
0.156202
0.0188712
0.15883
0.024165
0.161648
0.0286082
0.164587
0.0322375
0.16759
0.0351043
0.170602
0.0372784
0.0388928
0.173497
0.191408
-0.050389
-0.191667
0.190441
-0.0561383
0.188873
-0.061119
0.186784
-0.0655242
0.184239
-0.0692844
0.181299
-0.0723215
0.17802
-0.0745372
0.174467
-0.0758183
0.170725
-0.076057
0.166873
-0.0752088
0.162993
-0.0730657
0.159224
-0.0696114
0.155687
-0.0648982
0.152503
-0.0590139
0.149781
-0.0521146
0.147613
-0.044414
0.146062
-0.036167
0.14516
-0.0276465
0.144909
-0.0191208
0.145281
-0.0108331
0.146224
-0.00298618
0.147674
0.00427028
0.149557
0.0108314
0.151794
0.0166342
0.154305
0.0216537
0.157016
0.0258972
0.15986
0.0293936
0.16278
0.0321839
0.165726
0.0343331
0.0360437
0.168575
0.18798
-0.0497886
-0.188581
0.186756
-0.054914
0.185006
-0.059369
0.18279
-0.0633085
0.180165
-0.0666594
0.177183
-0.0693396
0.173898
-0.0712517
0.170368
-0.0722881
0.166679
-0.0723683
0.162891
-0.0714203
0.159094
-0.0692689
0.15541
-0.0659275
0.15195
-0.0614381
0.148824
-0.0558877
0.146132
-0.0494233
0.14396
-0.0422417
0.142367
-0.0345744
0.141388
-0.0266672
0.141028
-0.0187603
0.141265
-0.0110709
0.142058
-0.0037793
0.143351
0.00297764
0.145077
0.00910562
0.147163
0.0145477
0.149537
0.0192803
0.152126
0.0233078
0.154867
0.026653
0.157702
0.0293485
0.160584
0.0314511
0.0332301
0.163398
0.184472
-0.0488963
-0.185364
0.183023
-0.0534648
0.181105
-0.057451
0.17877
-0.0609741
0.176069
-0.063958
0.173048
-0.0663185
0.169757
-0.0679606
0.166252
-0.0687837
0.162615
-0.0687304
0.158889
-0.0676948
0.155173
-0.0655524
0.15157
-0.0623251
0.148183
-0.0580508
0.145111
-0.0528156
0.142446
-0.0467581
0.140265
-0.0400609
0.138626
-0.0329352
0.137562
-0.0256036
0.137083
-0.0182817
0.137176
-0.011163
0.137805
-0.00440859
0.138923
0.00185925
0.140473
0.00755627
0.142388
0.012632
0.144603
0.0170654
0.147052
0.0208595
0.149671
0.0240333
0.152408
0.0266121
0.155215
0.0286441
0.0304556
0.157989
0.180852
-0.0477409
-0.182007
0.179198
-0.0518114
0.177129
-0.0553814
0.174689
-0.0585342
0.171922
-0.0611905
0.168869
-0.0632658
0.165578
-0.0646694
0.162103
-0.065309
0.158512
-0.0651396
0.154849
-0.0640315
0.151208
-0.0619117
0.147682
-0.058799
0.144362
-0.0547313
0.14134
-0.0497933
0.138699
-0.0441168
0.136509
-0.0378715
0.134826
-0.0312516
0.133681
-0.0244591
0.133088
-0.017688
0.133036
-0.0111117
0.133501
-0.00487298
0.13444
0.000919482
0.135805
0.00619138
0.137538
0.0108989
0.13958
0.015024
0.141869
0.0185701
0.144349
0.0215536
0.146966
0.0239947
0.149677
0.0259335
0.0277385
0.152394
0.177099
-0.0463472
-0.178493
0.175263
-0.0499749
0.17306
-0.0531788
0.170529
-0.0560034
0.167707
-0.058368
0.164631
-0.0601898
0.161345
-0.0613831
0.157902
-0.0618664
0.154355
-0.0615923
0.150752
-0.0604287
0.147182
-0.0583416
0.143727
-0.0553438
0.14047
-0.0514747
0.137495
-0.046818
0.134877
-0.0414991
0.132682
-0.0356767
0.13096
-0.0295296
0.129743
-0.0232419
0.129044
-0.0169889
0.128858
-0.0109258
0.129165
-0.00517956
0.12993
0.000154215
0.131111
0.00501062
0.132657
0.00935226
0.134517
0.0131648
0.136634
0.0164524
0.138957
0.0192304
0.141437
0.0215156
0.144029
0.0233414
0.0251025
0.146665
0.173205
-0.0447412
-0.174811
0.171209
-0.0479784
0.168891
-0.0508611
0.166283
-0.0533953
0.163416
-0.0555007
0.160324
-0.0570974
0.157045
-0.0581048
0.153635
-0.058456
0.150129
-0.0580863
0.146585
-0.0568845
0.143081
-0.0548376
0.139691
-0.0519546
0.136494
-0.0482773
0.133564
-0.0438881
0.130972
-0.0389066
0.128776
-0.0334812
0.127024
-0.0277772
0.125745
-0.021963
0.124953
-0.0161972
0.124646
-0.0106188
0.124807
-0.00534051
0.125408
-0.000446409
0.126411
0.00400749
0.127773
0.0079899
0.129448
0.0114901
0.131386
0.0145138
0.133541
0.0170754
0.135867
0.0191903
0.138321
0.0208872
0.022571
0.140852
0.169164
-0.0429504
-0.170955
0.167031
-0.0458448
0.164615
-0.0484454
0.161942
-0.0507226
0.159039
-0.0525975
0.155936
-0.0539946
0.152669
-0.0548379
0.149288
-0.055075
0.145823
-0.0546211
0.142335
-0.0533967
0.138893
-0.0513957
0.135567
-0.0486279
0.132426
-0.0451368
0.129541
-0.0410034
0.126977
-0.0363417
0.124786
-0.0312909
0.123013
-0.0260039
0.121685
-0.0206347
0.120815
-0.0153272
0.120402
-0.0102059
0.120432
-0.00537106
0.120882
-0.000896084
0.121719
0.00317094
0.122904
0.00680432
0.124398
0.00999683
0.126156
0.0127556
0.128136
0.0150952
0.130296
0.0170299
0.132598
0.0185859
0.0201651
0.135004
0.164972
-0.0410015
-0.166921
0.162723
-0.0435953
0.160225
-0.0459476
0.157499
-0.0479966
0.154567
-0.0496662
0.151459
-0.050886
0.148207
-0.0515867
0.144854
-0.0517219
0.14143
-0.0511965
0.137995
-0.0499622
0.134613
-0.048013
0.131346
-0.0453611
0.128261
-0.0420521
0.125423
-0.0381648
0.122889
-0.0338083
0.120711
-0.0291127
0.118926
-0.0242195
0.117562
-0.0192698
0.116628
-0.014394
0.116126
-0.00970377
0.116043
-0.00528798
0.116358
-0.0012108
0.117042
0.00248683
0.118062
0.00578424
0.119382
0.00867731
0.120962
0.0111747
0.122767
0.013291
0.124756
0.0150404
0.126895
0.0164475
0.0179015
0.129158
0.160625
-0.0389198
-0.162706
0.158279
-0.0412498
0.155714
-0.0433821
0.152945
-0.0452277
0.149993
-0.0467141
0.146883
-0.047776
0.14365
-0.048354
0.140324
-0.0483955
0.13694
-0.0478133
0.133558
-0.0465796
0.130232
-0.0446876
0.127025
-0.0421533
0.123996
-0.0390232
0.121205
-0.0353745
0.118708
-0.0313106
0.116549
-0.0269536
0.114763
-0.0224341
0.113374
-0.017881
0.112393
-0.0134125
0.111818
-0.00912887
0.111639
-0.00510859
0.111835
-0.00140766
0.112383
0.00193925
0.113251
0.00491583
0.114408
0.00752067
0.115819
0.00976364
0.11745
0.0116597
0.119268
0.0132228
0.121238
0.0144773
0.015792
0.123348
0.156118
-0.0367286
-0.158309
0.153695
-0.0388263
0.151075
-0.0407623
0.148273
-0.042426
0.145308
-0.0437485
0.142201
-0.0446691
0.138987
-0.0451402
0.135689
-0.0450973
0.132348
-0.0444725
0.129017
-0.0432483
0.125748
-0.0414192
0.122599
-0.0390045
0.119628
-0.0360515
0.116888
-0.0326353
0.114432
-0.0288539
0.112299
-0.0248211
0.110523
-0.0206575
0.109122
-0.0164807
0.108107
-0.0123974
0.107476
-0.00849734
0.107217
-0.00485
0.107313
-0.001504
0.107741
0.00151143
0.108473
0.00418371
0.10948
0.00651368
0.110732
0.00851219
0.112197
0.0101942
0.113846
0.011574
0.115647
0.0126759
0.0138433
0.117596
0.151448
-0.0344494
-0.153727
0.148963
-0.036341
0.146301
-0.0381005
0.143475
-0.0396003
0.140502
-0.0407755
0.137405
-0.0415714
0.134211
-0.0419468
0.130944
-0.0418296
0.127646
-0.0411754
0.124367
-0.039969
0.121156
-0.0382086
0.118068
-0.0359161
0.115156
-0.0331394
0.112472
-0.0299511
0.110062
-0.0264436
0.107963
-0.0227229
0.106205
-0.0188996
0.104805
-0.0150806
0.10377
-0.0113623
0.103097
-0.0078245
0.102776
-0.00452864
0.102789
-0.00151681
0.103114
0.0011865
0.103726
0.00357182
0.104597
0.00564177
0.105702
0.00740785
0.107011
0.00888497
0.108498
0.0100875
0.110134
0.01104
0.0120576
0.111919
0.146608
-0.0321017
-0.148956
0.144076
-0.0338083
0.141383
-0.035408
0.138542
-0.0367596
0.135569
-0.0378021
0.132486
-0.0384885
0.129315
-0.0387754
0.126081
-0.0385964
0.12283
-0.0379238
0.119604
-0.0367435
0.116453
-0.0350576
0.113428
-0.0328906
0.110579
-0.0302904
0.107954
-0.0273265
0.105597
-0.0240859
0.10354
-0.0206666
0.10181
-0.0171696
0.100422
-0.013692
0.0993794
-0.01032
0.0986796
-0.0071247
0.098311
-0.00416001
0.0982565
-0.00146231
0.098495
0.000948001
0.0990028
0.00306404
0.0997548
0.00488974
0.100726
0.00643692
0.101891
0.00772021
0.103224
0.00875391
0.104701
0.00956284
0.0104329
0.106326
0.141591
-0.0297027
-0.14399
0.139024
-0.0312415
0.136312
-0.0326962
0.133465
-0.033913
0.130498
-0.034835
0.127434
-0.0354242
0.124289
-0.0356301
0.121095
-0.0354024
0.117892
-0.0347211
0.114723
-0.0335749
0.111635
-0.0319696
0.108677
-0.0299318
0.105895
-0.0275087
0.103335
-0.0247667
0.101036
-0.0217871
0.0990295
-0.0186597
0.0973366
-0.0154767
0.0959699
-0.0123253
0.0949324
-0.0092825
0.0942189
-0.00641121
0.0938174
-0.00375852
0.0937109
-0.00135572
0.0938786
0.00078028
0.0942979
0.00264469
0.0949453
0.00424236
0.0957971
0.0055851
0.0968303
0.00668705
0.0980219
0.00756234
0.099349
0.00823567
0.00896368
0.100818
0.136384
-0.0272676
-0.138819
0.133797
-0.0286544
0.131076
-0.0299759
0.128233
-0.0310693
0.12528
-0.0318827
0.122239
-0.0323828
0.119126
-0.0325169
0.115976
-0.0322522
0.112826
-0.0315715
0.109719
-0.0304674
0.106698
-0.028949
0.10381
-0.0270443
0.101101
-0.0247996
0.0986122
-0.0222776
0.0963788
-0.0195537
0.094429
-0.0167099
0.0927818
-0.0138295
0.0914469
-0.0109904
0.0904252
-0.00826088
0.0897103
-0.00569624
0.0892892
-0.0033374
0.0891446
-0.00121112
0.0892562
0.000668679
0.089602
0.00229886
0.0901595
0.00368482
0.0909065
0.00483808
0.0918215
0.00577212
0.0928832
0.00650064
0.0940709
0.00704792
0.00764232
0.0953923
0.130975
-0.0248108
-0.133432
0.128381
-0.0260605
0.125664
-0.0272584
0.122832
-0.0282372
0.119902
-0.0289527
0.116889
-0.0293696
0.113815
-0.0294431
0.110714
-0.0291518
0.107624
-0.0284807
0.104583
-0.0274265
0.101635
-0.0260013
0.0988244
-0.0242338
0.0961937
-0.0221689
0.0937815
-0.0198654
0.0916204
-0.0173926
0.0897353
-0.0148247
0.0881421
-0.0122363
0.0868481
-0.00969648
0.0858525
-0.00726527
0.0851472
-0.0049909
0.0847185
-0.00290869
0.0845487
-0.00104137
0.0846177
0.000599698
0.0849039
0.00201263
0.0853857
0.00320307
0.0860418
0.004182
0.0868518
0.00496203
0.0877962
0.00555627
0.0888559
0.00598819
0.00645933
0.0900389
0.125349
-0.0223471
-0.127812
0.122761
-0.0234733
0.120058
-0.0245545
0.117247
-0.0254268
0.114347
-0.0260525
0.11137
-0.0263924
0.108343
-0.0264167
0.1053
-0.0261081
0.102274
-0.0254553
0.0993066
-0.0244588
0.0964383
-0.023133
0.0937114
-0.0215069
0.0911658
-0.0196233
0.0888375
-0.0175371
0.0867558
-0.0153109
0.0849427
-0.0130116
0.0834115
-0.0107051
0.0821671
-0.00845213
0.0812068
-0.00630498
0.0805212
-0.00430529
0.0800958
-0.00248328
0.0799125
-0.000858082
0.0799511
0.000561072
0.0801905
0.00177324
0.0806095
0.00278405
0.0811878
0.00360374
0.081906
0.00424387
0.0827454
0.00471679
0.0836888
0.00504479
0.00540433
0.0847438
0.119484
-0.019892
-0.121939
0.116916
-0.0209053
0.114237
-0.0218754
0.11146
-0.0226492
0.108597
-0.0231893
0.105666
-0.0234614
0.102695
-0.0234464
0.0997167
-0.0231295
0.096765
-0.0225036
0.0938785
-0.0215723
0.0910974
-0.0203519
0.0884616
-0.0188711
0.0860086
-0.0171704
0.0837714
-0.0152998
0.0817764
-0.013316
0.0800428
-0.011278
0.0785813
-0.00924354
0.0773945
-0.0072654
0.0764781
-0.00538854
0.0758213
-0.00364851
0.0754089
-0.0020709
0.0752225
-0.00067165
0.0752418
0.000541803
0.0754458
0.00156918
0.075814
0.00241586
0.0763266
0.00309116
0.076965
0.0036055
0.0777115
0.00397026
0.07855
0.00420625
0.00446668
0.0794877
0.113356
-0.0174617
-0.115787
0.11082
-0.0183693
0.108178
-0.0192332
0.105443
-0.0199144
0.102628
-0.020374
0.0997547
-0.0205881
0.0968508
-0.0205425
0.0939471
-0.0202259
0.0910785
-0.0196349
0.0882824
-0.0187762
0.0855974
-0.0176669
0.0830613
-0.016335
0.0807091
-0.0148181
0.0785708
-0.0131616
0.0766703
-0.0114154
0.0750236
-0.00963129
0.0736391
-0.00785907
0.0725175
-0.00614384
0.0716528
-0.00452375
0.071033
-0.00302875
0.0706423
-0.00168019
0.0704619
-0.000491243
0.0704715
0.000532188
0.0706504
0.00139024
0.0709784
0.00208787
0.0714363
0.00263334
0.0720059
0.00303584
0.0726706
0.00330562
0.0734151
0.00346174
0.00363597
0.0742458
0.106929
-0.0150723
-0.109319
0.104439
-0.0158789
0.101848
-0.016642
0.0991671
-0.017234
0.0964132
-0.01762
0.0936097
-0.0177847
0.0907839
-0.0177166
0.0879666
-0.0174086
0.0851922
-0.0168605
0.0824971
-0.0160811
0.0799184
-0.0150882
0.0774917
-0.0139083
0.0752493
-0.0125757
0.0732185
-0.0111308
0.0714202
-0.00961714
0.069868
-0.00807909
0.0685679
-0.00655893
0.0675186
-0.00509455
0.0667126
-0.00371774
0.0661371
-0.00245329
0.0657757
-0.00131875
0.0656093
-0.000324818
0.0656176
0.000523837
0.0657803
0.00122759
0.0660773
0.00179083
0.06649
0.00222069
0.0670008
0.00252505
0.0675934
0.00271296
0.0682537
0.00280143
0.00290258
0.0689871
0.100156
-0.0127416
-0.102487
0.0977282
-0.013451
0.0952029
-0.0141166
0.0925914
-0.0146225
0.0899139
-0.0149425
0.0871944
-0.0150652
0.0844603
-0.0149826
0.0817427
-0.014691
0.0790755
-0.0141933
0.0764939
-0.0134996
0.0740332
-0.0126275
0.0717268
-0.0116018
0.0696043
-0.0104532
0.0676903
-0.00921675
0.0660028
-0.00792963
0.0645528
-0.00662912
0.0633441
-0.00535029
0.0623739
-0.00412428
0.0616331
-0.00297701
0.0611084
-0.00192857
0.0607828
-0.00099308
0.060637
-0.000179106
0.0606512
0.000509713
0.0608049
0.00107383
0.0610788
0.00151698
0.0614544
0.00184511
0.0619146
0.00206479
0.0624438
0.00218374
0.0630285
0.0022168
0.00225802
0.063673
0.0929768
-0.0104894
-0.095229
0.0906299
-0.0111041
0.0881866
-0.0116734
0.0856623
-0.0120981
0.0830784
-0.0123587
0.0804595
-0.0124463
0.0778336
-0.0123566
0.0752316
-0.012089
0.0726868
-0.0116485
0.0702333
-0.0110461
0.0679043
-0.0102985
0.0657308
-0.00942833
0.0637398
-0.00846218
0.0619528
-0.00742978
0.0603852
-0.00636207
0.0590456
-0.0052895
0.0579357
-0.00424035
0.0570509
-0.0032395
0.0563814
-0.0023075
0.055913
-0.00146017
0.0556285
-0.000708631
0.055509
-5.95574e-05
0.0555345
0.000484227
0.0556852
0.000923143
0.0559419
0.00126021
0.0562868
0.00150022
0.0567032
0.0016484
0.0571758
0.00171114
0.0576916
0.00170098
0.00169533
0.0582543
0.0853069
-0.00833876
-0.0874576
0.0830612
-0.00885836
0.0807214
-0.0093336
0.0783055
-0.00968225
0.0758357
-0.00988887
0.0733375
-0.00994805
0.0708394
-0.00985844
0.0683723
-0.00962193
0.0659685
-0.00924482
0.0636607
-0.00873819
0.0614798
-0.00811766
0.0594542
-0.00740274
0.057608
-0.00661596
0.0559599
-0.00578167
0.0545225
-0.00492468
0.053302
-0.00406897
0.0522982
-0.00323654
0.0515052
-0.00244652
0.0509123
-0.00171461
0.050505
-0.00105285
0.050266
-0.000469693
0.0501767
2.97812e-05
0.0502175
0.000443406
0.0503692
0.000771489
0.0506131
0.00101633
0.0509317
0.00118158
0.0513089
0.00127124
0.0517297
0.00129033
0.0521816
0.00124906
0.00120953
0.0526674
0.0770246
-0.00631525
-0.0790481
0.0749062
-0.00673994
0.0726966
-0.00712394
0.0704147
-0.00740043
0.0680844
-0.00755855
0.0657321
-0.00759577
0.0633868
-0.00751305
0.0610788
-0.00731395
0.0588394
-0.0070054
0.056699
-0.00659788
0.0546865
-0.00610509
0.0528271
-0.00554334
0.0511419
-0.00493078
0.0496467
-0.00428645
0.0483513
-0.0036293
0.0472596
-0.00297733
0.0463699
-0.00234678
0.045675
-0.00175162
0.0451636
-0.00120326
0.0448212
-0.000710425
0.0446308
-0.000279255
0.0445741
8.65023e-05
0.0446323
0.0003852
0.0447868
0.00061698
0.0450196
0.000783449
0.045314
0.000887212
0.0456541
0.000931131
0.0460255
0.000918976
0.0464159
0.000858608
0.000798026
0.0468274
0.0679513
-0.00445219
-0.0698144
0.0659941
-0.00478268
0.0639476
-0.00507749
0.0618331
-0.00528592
0.0596757
-0.00540116
0.0575028
-0.00542282
0.055343
-0.00535332
0.0532261
-0.00519703
0.0511814
-0.00496071
0.0492371
-0.00465357
0.0474189
-0.0042869
0.045749
-0.00387348
0.0442453
-0.00342702
0.0429203
-0.00296145
0.0417813
-0.00249029
0.04083
-0.00202606
0.0400631
-0.0015799
0.0394728
-0.00116128
0.0390474
-0.000777893
0.0387726
-0.000435641
0.0386321
-0.000138717
0.0386084
0.000110243
0.0386836
0.000309991
0.0388401
0.000460481
0.0390608
0.000562685
0.0393298
0.000618283
0.0396317
0.000629156
0.0399528
0.000597949
0.040281
0.00053032
0.000461265
0.0406178
0.0578078
-0.0027936
-0.0594664
0.0560564
-0.0030313
0.0542191
-0.00324019
0.0523188
-0.00338565
0.0503818
-0.00346412
0.0484354
-0.00347644
0.0465076
-0.00342555
0.0446264
-0.00331574
0.0428185
-0.00315289
0.0411093
-0.00294433
0.0395209
-0.0026985
0.038072
-0.00242453
0.0367767
-0.00213177
0.0356447
-0.00182939
0.0346804
-0.00152599
0.0338837
-0.00122937
0.0332501
-0.000946284
0.0327712
-0.00068244
0.0324358
-0.000442451
0.03223
-0.000229889
0.0321387
-4.7358e-05
0.0321455
0.000103403
0.032234
0.000221468
0.0323879
0.000306616
0.0325913
0.000359267
0.0328293
0.000380313
0.0330876
0.000370835
0.033353
0.000332534
0.0336143
0.000269075
0.000203516
0.033872
0.0461304
-0.00140436
-0.0475196
0.0446528
-0.00155372
0.0430954
-0.00168279
0.0414818
-0.00177211
0.039838
-0.0018203
0.0381901
-0.00182855
0.036564
-0.00179948
0.0349849
-0.00173658
0.0334762
-0.00164419
0.0320591
-0.00152728
0.0307518
-0.00139122
0.0295688
-0.00124148
0.0285204
-0.00108338
0.0276129
-0.000921891
0.0268484
-0.000761498
0.0262251
-0.000606104
0.0257379
-0.000459027
0.0253785
-0.000323019
0.0251363
-0.000200321
0.0249992
-9.27212e-05
0.0249534
-1.55245e-06
0.0249846
7.21977e-05
0.0250782
0.000127846
0.0252197
0.000165073
0.0253951
0.000183896
0.0255908
0.000184588
0.0257941
0.000167597
0.0259927
0.000133856
0.0261765
8.53423e-05
3.44357e-05
0.0263456
0.0320913
-0.000398895
-0.0330968
0.0310074
-0.000469841
0.0298544
-0.000529709
0.028653
-0.000570733
0.0274261
-0.000593401
0.0261966
-0.000599066
0.0249868
-0.000589646
0.0238174
-0.000567254
0.0227074
-0.000534141
0.0216727
-0.000492629
0.0207265
-0.000445
0.0198785
-0.000393404
0.0191349
-0.00033978
0.0184988
-0.00028582
0.0179702
-0.000232952
0.0175465
-0.000182357
0.0172225
-0.000134998
0.0169911
-9.16649e-05
0.0168438
-5.30184e-05
0.0167708
-1.97229e-05
0.0167617
7.583e-06
0.0168041
2.97321e-05
0.016887
4.50019e-05
0.0169985
5.35715e-05
0.0171271
5.52751e-05
0.0172617
4.99771e-05
0.0173918
3.75587e-05
0.0175076
1.80065e-05
0.0176013
-8.33149e-06
-3.52764e-05
0.017671
0.0141555
-0.0145544
0.0136857
0.013156
0.0125853
0.0119919
0.0113928
0.0108031
0.0102359
0.00970175
0.00920913
0.00876413
0.00837072
0.00803094
0.00774512
0.00751217
0.00732981
0.00719481
0.00710315
0.00705013
0.00703041
0.00703799
0.00706772
0.00711272
0.0071663
0.00722157
0.00727155
0.00730911
0.00732711
0.00731878
0.00728351
0.351225
-0.178772
0.333837
-0.177217
0.317076
-0.174906
0.300819
-0.172323
0.284959
-0.169505
0.269412
-0.166459
0.254121
-0.163203
0.239057
-0.159747
0.224201
-0.1561
0.20955
-0.152269
0.195104
-0.148261
0.180873
-0.144078
0.166871
-0.139725
0.153115
-0.1352
0.139628
-0.130502
0.126434
-0.125625
0.113562
-0.12056
0.101043
-0.115293
0.0889106
-0.109807
0.0772031
-0.104079
0.0659624
-0.0980778
0.0552368
-0.0917612
0.0450821
-0.0850743
0.0355649
-0.0779404
0.0267676
-0.0702508
0.0187976
-0.0618444
0.0118048
-0.0524736
0.00601757
-0.0417324
0.00183765
-0.0289169
-0.0127168
0.334628
-0.162156
0.318167
-0.160756
0.302124
-0.158863
0.286431
-0.156631
0.271029
-0.154103
0.255886
-0.151316
0.240981
-0.148298
0.226303
-0.145068
0.211847
-0.141644
0.197618
-0.13804
0.183623
-0.134266
0.169876
-0.130331
0.156392
-0.126241
0.14319
-0.121998
0.130291
-0.117603
0.117718
-0.113052
0.105494
-0.108337
0.0936492
-0.103448
0.0822118
-0.0983699
0.0712151
-0.0930825
0.0606958
-0.0875585
0.0506961
-0.0817615
0.0412649
-0.0756431
0.0324611
-0.0691365
0.0243577
-0.0621474
0.0170513
-0.054538
0.0106767
-0.046099
0.00543834
-0.036494
0.0016796
-0.0251581
-0.0110372
0.317358
-0.146418
0.301795
-0.145193
0.286489
-0.143557
0.271431
-0.141572
0.256604
-0.139277
0.242002
-0.136714
0.227618
-0.133914
0.213456
-0.130905
0.19952
-0.127709
0.185822
-0.124341
0.172373
-0.120818
0.159191
-0.117149
0.146291
-0.113341
0.133693
-0.1094
0.121417
-0.105327
0.109483
-0.101118
0.0979154
-0.096769
0.0867381
-0.0922706
0.075978
-0.0876098
0.0656645
-0.082769
0.0558303
-0.0777243
0.046513
-0.0724443
0.0377565
-0.0668866
0.0296134
-0.0609934
0.0221499
-0.0546839
0.0154529
-0.047841
0.00964365
-0.0402897
0.00490305
-0.0317534
0.00152381
-0.0217789
-0.00951338
0.300886
-0.131446
0.286051
-0.130358
0.271388
-0.128894
0.256907
-0.127091
0.242616
-0.124987
0.228526
-0.122623
0.214646
-0.120034
0.200989
-0.117248
0.187567
-0.114287
0.174397
-0.111171
0.161495
-0.107915
0.148876
-0.10453
0.136559
-0.101024
0.124561
-0.0974027
0.112901
-0.0936667
0.101599
-0.0898153
0.0906734
-0.0858439
0.0801477
-0.0817449
0.0700452
-0.0775072
0.0603917
-0.0731155
0.0512165
-0.0685492
0.0425531
-0.0637808
0.0344404
-0.0587739
0.0269259
-0.0534789
0.020069
-0.047827
0.0139479
-0.0417199
0.00867035
-0.0350122
0.00439464
-0.0274777
0.00136771
-0.018752
-0.00814567
0.285161
-0.117107
0.270923
-0.116121
0.256815
-0.114786
0.242859
-0.113134
0.229076
-0.111204
0.215486
-0.109034
0.202108
-0.106657
0.18896
-0.1041
0.176061
-0.101388
0.163426
-0.0985372
0.151075
-0.0955636
0.139022
-0.092478
0.127286
-0.0892883
0.115883
-0.0859993
0.104829
-0.082613
0.0941424
-0.0791285
0.0838409
-0.0755424
0.073944
-0.071848
0.0644726
-0.0680359
0.0554498
-0.0640927
0.0469013
-0.0600007
0.038857
-0.0557365
0.0313518
-0.0512687
0.0244282
-0.0465553
0.0181395
-0.0415383
0.0125552
-0.0361356
0.00777047
-0.0302275
0.0039222
-0.0236294
0.00121779
-0.0160475
-0.00692789
0.270158
-0.103307
0.256441
-0.102403
0.242837
-0.101182
0.229376
-0.0996735
0.216087
-0.0979143
0.202993
-0.0959402
0.190119
-0.0937824
0.177485
-0.0914664
0.165111
-0.0890135
0.153015
-0.0864409
0.141214
-0.0837623
0.129723
-0.0809879
0.11856
-0.0781249
0.107739
-0.075178
0.0972748
-0.072149
0.0871836
-0.0690373
0.0774812
-0.06584
0.0681849
-0.0625516
0.059313
-0.059164
0.0508859
-0.0556656
0.0429268
-0.0520415
0.035462
-0.0482717
0.0285228
-0.0443296
0.0221472
-0.0401797
0.0163827
-0.0357738
0.0112909
-0.0310438
0.00695516
-0.0258917
0.00349308
-0.0201673
0.00107904
-0.0136335
-0.00584884
0.25588
-0.0899908
0.242643
-0.0891663
0.229519
-0.0880577
0.21654
-0.0866947
0.203738
-0.085112
0.19114
-0.0833421
0.17877
-0.0814128
0.166651
-0.0793472
0.154802
-0.0771644
0.143241
-0.0748797
0.131983
-0.0725052
0.121046
-0.0700501
0.110441
-0.0675207
0.100184
-0.064921
0.0902883
-0.0622529
0.0807669
-0.0595159
0.0716344
-0.0567075
0.0629059
-0.0538231
0.0545977
-0.0508558
0.046728
-0.0477959
0.0393171
-0.0446307
0.0323887
-0.0413433
0.0259706
-0.0379115
0.0200969
-0.034306
0.0148095
-0.0304865
0.0101631
-0.0263973
0.00623
-0.0219587
0.0031115
-0.0170488
0.000954674
-0.0114767
-0.00489417
0.242341
-0.077133
0.229567
-0.0763922
0.216912
-0.0754025
0.20441
-0.0741931
0.192094
-0.0727957
0.179991
-0.0712389
0.168125
-0.0695472
0.156519
-0.0677406
0.14519
-0.0658357
0.134156
-0.0638457
0.123432
-0.061781
0.113031
-0.0596494
0.102967
-0.0574565
0.0932514
-0.0552057
0.083897
-0.0528984
0.0749156
-0.0505345
0.0663198
-0.0481118
0.058123
-0.0456264
0.0503397
-0.0430725
0.042986
-0.0404421
0.0360799
-0.0377246
0.0296427
-0.034906
0.0236991
-0.031968
0.0182795
-0.0288863
0.0134211
-0.0256281
0.00917203
-0.0221482
0.00559544
-0.0183821
0.00277847
-0.0142319
0.000846016
-0.00954422
-0.00404815
0.229554
-0.0647265
0.217238
-0.0640771
0.205051
-0.0632153
0.193027
-0.0621687
0.181197
-0.0609654
0.169587
-0.0596297
0.158223
-0.0581825
0.147123
-0.0566408
0.136306
-0.0550184
0.125786
-0.0533264
0.115579
-0.0515736
0.105696
-0.0497664
0.0961491
-0.0479094
0.0869489
-0.0460055
0.0781064
-0.0440559
0.0696323
-0.0420604
0.0615377
-0.0400172
0.0538345
-0.0379232
0.0465356
-0.0357736
0.0396552
-0.0335617
0.0332096
-0.0312791
0.0272177
-0.0289141
0.0217018
-0.026452
0.0166886
-0.0238731
0.0122116
-0.0211511
0.00831303
-0.0182496
0.00504819
-0.0151172
0.00249258
-0.0116763
0.000753088
-0.00780473
-0.00329506
0.217522
-0.0527736
0.205668
-0.0522238
0.193952
-0.0514985
0.182406
-0.0506228
0.171061
-0.0496204
0.159942
-0.0485114
0.149073
-0.0473128
0.13847
-0.0460386
0.128152
-0.0447001
0.118132
-0.0433062
0.108422
-0.0418639
0.0990342
-0.0403785
0.0899785
-0.0388537
0.0812648
-0.0372918
0.0729026
-0.0356937
0.0649016
-0.0340593
0.0572715
-0.0323872
0.0500231
-0.0306747
0.0431678
-0.0289182
0.0367183
-0.0271123
0.0306894
-0.0252501
0.0250979
-0.0233226
0.0199638
-0.0213179
0.0153113
-0.0192206
0.0111699
-0.0170098
0.00757736
-0.0146571
0.0045823
-0.0121222
0.00225069
-0.00934465
0.000675046
-0.00622908
-0.00262002
0.206237
-0.0412804
0.19485
-0.040837
0.183607
-0.040255
0.172539
-0.0395557
0.161677
-0.0387581
0.151044
-0.0378781
0.14066
-0.0369291
0.130543
-0.0359219
0.120709
-0.0348653
0.111169
-0.0337662
0.101935
-0.0326302
0.0930178
-0.0314612
0.0844262
-0.0302621
0.0761691
-0.0290347
0.068255
-0.0277797
0.0606926
-0.0264969
0.0534908
-0.0251853
0.0466589
-0.0238429
0.0402075
-0.0224668
0.0341481
-0.0210529
0.0284938
-0.0195958
0.0232599
-0.0180887
0.0184645
-0.0165226
0.0141294
-0.0148855
0.0102813
-0.0131617
0.00695372
-0.0113295
0.00419008
-0.00935853
0.00204862
-0.00720319
0.000610525
-0.00479099
-0.00200949
0.195675
-0.0302536
0.184759
-0.0299209
0.17399
-0.029486
0.1634
-0.0289655
0.153016
-0.0283735
0.142859
-0.0277217
0.13295
-0.02702
0.123304
-0.0262761
0.113935
-0.0254966
0.104856
-0.0246865
0.0960751
-0.0238497
0.0876031
-0.0229892
0.079448
-0.0221071
0.0716178
-0.0212045
0.0641203
-0.0202821
0.0569632
-0.0193398
0.0501545
-0.0183767
0.043703
-0.0173914
0.037618
-0.0163818
0.0319101
-0.0153449
0.0265912
-0.014277
0.0216754
-0.0131729
0.0171792
-0.0120263
0.0131222
-0.0108285
0.00952877
-0.00956825
0.0064293
-0.00823003
0.00386285
-0.00679208
0.00188157
-0.00522191
0.000557903
-0.00346732
-0.00145159
0.185801
-0.0196975
0.175357
-0.0194773
0.165061
-0.0191903
0.154944
-0.0188478
0.145029
-0.018459
0.135339
-0.0180316
0.125891
-0.0175719
0.1167
-0.0170851
0.107779
-0.0165753
0.0991379
-0.0160458
0.0907874
-0.0154992
0.0827355
-0.0149373
0.07499
-0.0143615
0.067558
-0.0137726
0.0604469
-0.0131709
0.0536635
-0.0125565
0.0472155
-0.0119286
0.0411106
-0.0112865
0.0353576
-0.0106288
0.0299661
-0.00995345
0.0249472
-0.00925813
0.0203138
-0.00853955
0.0160811
-0.00779355
0.0122672
-0.00701463
0.00889448
-0.00619552
0.00599073
-0.00532628
0.00359164
-0.00439299
0.0017446
-0.00337487
0.000515478
-0.0022382
-0.000936112
0.176566
-0.00961351
0.166594
-0.00950488
0.156767
-0.00936366
0.147115
-0.00919543
0.13766
-0.0090047
0.128424
-0.00879522