/*--------------------------------*- C++ -*----------------------------------*\
  =========                 |
  \\      /  F ield         | OpenFOAM: The Open Source CFD Toolbox
   \\    /   O peration     | Website:  https://openfoam.org
    \\  /    A nd           | Version:  12
     \\/     M anipulation  |
\*---------------------------------------------------------------------------*/
FoamFile
{
    format      ascii;
    class       volScalarField;
    location    "220";
    object      pMean;
}
// * * * * * * * * * * * * * * * * * * * * * * * * * * * * * * * * * * * * * //

dimensions      [0 2 -2 0 0 0 0];

internalField   nonuniform List<scalar> 
6750
(
0.00594848
0.00592039
0.00587197
0.00569188
0.00473047
0.0076683
0.00764225
0.00752821
0.00727594
0.00694025
0.0096346
0.00958706
0.00947007
0.00928472
0.00914775
0.0116688
0.0115865
0.0114756
0.0113472
0.0112844
0.0136752
0.0135492
0.013429
0.0133291
0.0133047
0.0155745
0.0154003
0.0152602
0.0151719
0.0151664
0.0173178
0.0170942
0.0169307
0.0168473
0.0168524
0.0188755
0.0186033
0.0184165
0.0183361
0.0183488
0.0202293
0.019911
0.0197027
0.0196253
0.019644
0.0213691
0.0210086
0.020782
0.0207079
0.0207313
0.0222919
0.0218946
0.0216534
0.021583
0.0216101
0.0230019
0.022574
0.0223224
0.0222557
0.0222854
0.0235092
0.0230569
0.0227997
0.0227363
0.0227675
0.0238293
0.0233582
0.0231015
0.02304
0.0230712
0.0239764
0.0234996
0.0232482
0.0231847
0.0232141
0.0239765
0.0234997
0.0232484
0.0231848
0.0232143
0.0238298
0.0233587
0.023102
0.0230405
0.0230717
0.02351
0.0230577
0.0228005
0.0227372
0.0227684
0.023003
0.0225751
0.0223235
0.0222568
0.0222866
0.0222933
0.021896
0.0216548
0.0215845
0.0216116
0.0213707
0.0210103
0.0207837
0.0207097
0.0207331
0.0202313
0.019913
0.0197047
0.0196273
0.019646
0.0188777
0.0186055
0.0184187
0.0183384
0.0183511
0.0173201
0.0170966
0.0169331
0.0168498
0.0168549
0.015577
0.0154029
0.0152629
0.0151746
0.0151691
0.0136779
0.0135519
0.0134317
0.0133319
0.0133075
0.0116715
0.0115893
0.0114784
0.01135
0.0112873
0.00963742
0.0095899
0.00947295
0.00928762
0.0091506
0.00767114
0.00764511
0.00753109
0.00727882
0.00694305
0.0059513
0.00592323
0.00587482
0.00569472
0.00473323
-0.000998343
-0.000478242
0.000852292
0.0018237
0.00251972
0.00307142
0.00350667
0.00384149
0.0041025
0.00429549
0.00440863
0.00449771
0.00454243
0.00454068
0.00449046
0.00438662
0.00422385
0.00400077
0.00371612
0.00336734
0.00295221
0.00255288
0.00211909
0.00166478
0.00120672
0.000755196
0.000318365
-8.60769e-05
-0.000447829
-0.000895747
0.00270198
0.00340694
0.00412534
0.00447193
0.00466309
0.00478
0.00482648
0.00481526
0.00477037
0.0046827
0.00454708
0.00444354
0.00434443
0.00425386
0.00417006
0.00408348
0.00398061
0.00384829
0.00367375
0.0034509
0.00318883
0.00282711
0.00244012
0.00201535
0.00155938
0.0010819
0.000589787
0.000100114
-0.000338871
-0.000780826
0.00513774
0.00529469
0.00557975
0.00570925
0.00576909
0.00577186
0.00570787
0.00558934
0.00543114
0.00520084
0.00492776
0.00467083
0.00440409
0.00413883
0.0038809
0.00363021
0.00338314
0.00313368
0.00287484
0.00260012
0.00230566
0.00199242
0.00165876
0.00130422
0.00093182
0.000545558
0.000145028
-0.000259531
-0.000586943
-0.000805189
0.0066249
0.00642022
0.00654296
0.00661416
0.00661887
0.00655697
0.00642469
0.00623677
0.00599623
0.005652
0.00527569
0.00488706
0.00447149
0.00404533
0.00362048
0.00320532
0.00280564
0.00242423
0.00206138
0.00171482
0.00138157
0.00106386
0.000754705
0.000449859
0.000147304
-0.000154612
-0.00046347
-0.000777326
-0.000985905
-0.000938155
0.00779054
0.0074601
0.00751279
0.00752341
0.00745518
0.007315
0.00710369
0.00683309
0.00649524
0.00604096
0.00556
0.00504425
0.00449311
0.00392605
0.00335915
0.00280662
0.00228043
0.00178929
0.00133824
0.000928582
0.000558707
0.000226211
-7.43404e-05
-0.000349575
-0.000605248
-0.000847011
-0.00108828
-0.00133496
-0.00145207
-0.00115525
0.0088299
0.00847055
0.00846731
0.00840703
0.00826145
0.00804175
0.00774914
0.00739095
0.00694661
0.00638791
0.00579862
0.00515972
0.00448115
0.00378466
0.00308985
0.00241533
0.00177751
0.00118912
0.000658445
0.000189062
-0.000219675
-0.000571552
-0.00087272
-0.00113128
-0.00135525
-0.00155297
-0.00174264
-0.0019362
-0.00197816
-0.00145571
0.00977478
0.00942484
0.00936968
0.00924037
0.0090222
0.00872648
0.00835497
0.00790979
0.00735529
0.00669928
0.00600158
0.00524441
0.00444483
0.0036266
0.00281248
0.00202466
0.00128307
0.000603531
-3.20618e-06
-0.000531861
-0.000982271
-0.00135842
-0.00166744
-0.00191864
-0.00212155
-0.00228656
-0.00243597
-0.00258592
-0.00256217
-0.00183944
0.0106437
0.0103264
0.0102251
0.0100301
0.00974246
0.00937234
0.0089234
0.00839043
0.0077266
0.00697892
0.00617318
0.00530186
0.00438664
0.00345293
0.00252625
0.00163183
0.000792395
2.6272e-05
-0.000653833
-0.0012413
-0.00173528
-0.0021398
-0.00246263
-0.00271399
-0.00290454
-0.00304652
-0.00316532
-0.00328032
-0.00319909
-0.00230307
0.0114566
0.0111879
0.0110446
0.0107852
0.010429
0.00998576
0.00945899
0.00883377
0.00806807
0.00722896
0.0063161
0.0053342
0.00430769
0.00326351
0.00222969
0.00123396
0.000301417
-0.00054762
-0.00129887
-0.00194464
-0.00248355
-0.00291962
-0.00326105
-0.00351876
-0.00370428
-0.00383131
-0.00392808
-0.00401553
-0.00388397
-0.00284183
0.0122287
0.0120182
0.0118356
0.0115122
0.0110877
0.0105726
0.00996667
0.00924327
0.00838483
0.00745124
0.006433
0.00534349
0.00420898
0.00305811
0.00192112
0.000827986
-0.000194258
-0.00112361
-0.00194451
-0.00264841
-0.0032335
-0.00370377
-0.00406776
-0.00433692
-0.00452356
-0.00464241
-0.00472462
-0.00479105
-0.00461486
-0.00345133
0.012971
0.0128249
0.012605
0.0122169
0.0117232
0.0111366
0.0104502
0.00962559
0.00868021
0.00764944
0.00652691
0.00533168
0.00409135
0.00283632
0.00159885
0.00041085
-0.000698933
-0.00170707
-0.00259693
-0.00335926
-0.00399188
-0.00449879
-0.00488878
-0.00517372
-0.00536651
-0.00548298
-0.00555688
-0.00560782
-0.00539162
-0.00412826
0.0136928
0.0136152
0.0133595
0.0129056
0.0123416
0.0116832
0.0109119
0.00998802
0.00895687
0.00782682
0.00660042
0.00530033
0.00395533
0.00259751
0.00126104
-2.04887e-05
-0.00121678
-0.00230317
-0.0032621
-0.00408369
-0.00476549
-0.00531145
-0.00573059
-0.00603515
-0.00623851
-0.00635762
-0.00642845
-0.00646867
-0.00621639
-0.00487093
0.0144028
0.0143962
0.0141062
0.0135855
0.0129509
0.0122166
0.0113537
0.0103382
0.00921729
0.00798621
0.00665574
0.00525073
0.00380116
0.00234084
0.000905666
-0.000469175
-0.00175203
-0.0029171
-0.003946
-0.00482831
-0.00556129
-0.00614889
-0.00660031
-0.00692809
-0.00714603
-0.00727218
-0.00734475
-0.00737853
-0.00709328
-0.00567965
0.0151097
0.0151753
0.0148523
0.0142633
0.0135566
0.0127434
0.0117831
0.0106807
0.00946456
0.00813059
0.00669497
0.00518394
0.00362885
0.0020652
0.000530507
-0.000938567
-0.0023091
-0.00355426
-0.00465487
-0.00560002
-0.00638671
-0.00701886
-0.00750583
-0.00786044
-0.00809681
-0.0082342
-0.00831292
-0.00834408
-0.0080284
-0.00655701
0.0158206
0.0159621
0.0156071
0.0149479
0.014166
0.013268
0.0122091
0.0110189
0.00970266
0.00826314
0.00672009
0.00510084
0.00343816
0.00176919
0.000133006
-0.00143235
-0.00289275
-0.00422038
-0.00539535
-0.00640623
-0.00724976
-0.00792983
-0.00845594
-0.0088411
-0.00909985
-0.00925261
-0.00934175
-0.00937392
-0.00903003
-0.00750816
0.016543
0.0167683
0.0163827
0.0156509
0.0147869
0.0137939
0.0126413
0.0113569
0.00993548
0.00838691
0.00673296
0.00500207
0.00322853
0.00145105
-0.000289812
-0.00195468
-0.00350827
-0.00492183
-0.00617475
-0.00725509
-0.00815935
-0.00889135
-0.00946066
-0.00988046
-0.0101657
-0.0103382
-0.010442
-0.0104788
-0.0101087
-0.0085411
0.0172872
0.0176068
0.0171911
0.0163822
0.0154284
0.0143315
0.0130866
0.0116993
0.0101674
0.00850501
0.00673535
0.00488809
0.00299907
0.00110855
-0.000741493
-0.00251037
-0.0041617
-0.00566579
-0.00700131
-0.00815585
-0.00912558
-0.00991425
-0.0105315
-0.0109907
-0.011307
-0.0115037
-0.011627
-0.0116721
-0.0112778
-0.00966712
0.0180704
0.0184914
0.018047
0.0171508
0.0160964
0.0148954
0.0135513
0.0120525
0.0104033
0.00862072
0.00672896
0.00475907
0.00274842
0.000738814
-0.00122637
-0.00310518
-0.00486012
-0.00646063
-0.00788462
-0.00911917
-0.0101602
-0.0110112
-0.011682
-0.0121859
-0.0125386
-0.0127648
-0.0129126
-0.0129704
-0.0125539
-0.0109013
0.0189144
0.0194348
0.0189632
0.0179722
0.0168032
0.0154976
0.0140423
0.012423
0.0106485
0.00873748
0.0067154
0.00461478
0.0024746
0.000338131
-0.00174983
-0.0037461
-0.0056121
-0.00731633
-0.00883602
-0.0101577
-0.011277
-0.0121972
-0.0129282
-0.0134834
-0.0138787
-0.0141405
-0.0143186
-0.0143939
-0.0139574
-0.0122635
0.0198393
0.0204598
0.0199596
0.0188608
0.0175678
0.0161493
0.0145703
0.0128196
0.0109091
0.00885909
0.00669616
0.00445451
0.00217472
-9.84429e-05
-0.00231879
-0.00444191
-0.00642815
-0.00824513
-0.00986937
-0.0112869
-0.0124928
-0.0134906
-0.0142897
-0.0149038
-0.015349
-0.0156536
-0.0158689
-0.0159676
-0.0155144
-0.0137791
0.0208739
0.0215975
0.0210593
0.019835
0.018414
0.0168658
0.0151482
0.0132524
0.0111924
0.00898959
0.00667242
0.0042767
0.00184459
-0.000577583
-0.00294228
-0.00520388
-0.00732168
-0.00926245
-0.011002
-0.0125258
-0.0138287
-0.0149138
-0.0157907
-0.0164729
-0.016977
-0.0173331
-0.0175945
-0.0177234
-0.0172574
-0.0154815
0.0220604
0.0228769
0.0222884
0.0209299
0.0193656
0.0176669
0.0157922
0.0137337
0.0115063
0.00913331
0.00664485
0.0040785
0.0014781
-0.00110852
-0.00363245
-0.00604687
-0.00831014
-0.0103882
-0.0122561
-0.013899
-0.0153112
-0.0164957
-0.017462
-0.0182236
-0.0187974
-0.0192155
-0.019533
-0.0197015
-0.0192286
-0.0174139
0.0234502
0.0243472
0.023693
0.0221868
0.0204523
0.0185779
0.0165227
0.0142781
0.0118604
0.00929465
0.00661307
0.00385504
0.00106612
-0.00170431
-0.004406
-0.00699105
-0.00941688
-0.0116487
-0.0136611
-0.0154385
-0.0169752
-0.0182738
-0.0193438
-0.0201985
-0.0208557
-0.0213488
-0.0217349
-0.0219549
-0.0214836
-0.0196342
0.0251183
0.0260771
0.025339
0.0236539
0.0217145
0.0196324
0.0173655
0.0149041
0.0122657
0.00947789
0.00657486
0.00359805
0.000594801
-0.00238395
-0.00528671
-0.00806457
-0.0106742
-0.0130802
-0.0152568
-0.0171879
-0.0188677
-0.0202985
-0.0214897
-0.0224547
-0.0232117
-0.0237962
-0.0242669
-0.0245533
-0.0240964
-0.0222209
0.0271839
0.0281677
0.0273075
0.0253973
0.0232088
0.0208757
0.0183548
0.015635
0.0127355
0.00968643
0.00652462
0.00329359
4.25774e-05
-0.00317598
-0.00630944
-0.00930814
-0.0121282
-0.014734
-0.0170993
-0.0192081
-0.0210542
-0.0226398
-0.0239743
-0.0250711
-0.0259488
-0.0266456
-0.0272209
-0.0275928
-0.0271688
-0.0252834
0.0297985
0.0307607
0.0297155
0.0275166
0.0250164
0.0223719
0.0195378
0.0165017
0.0132852
0.00992162
0.00645047
0.00291779
-0.000625247
-0.0041248
-0.0075274
-0.010783
-0.0138477
-0.0166858
-0.0192712
-0.0215881
-0.0236299
-0.0253992
-0.026905
-0.0281606
-0.0291855
-0.0300203
-0.0307262
-0.0312089
-0.0308461
-0.0289796
0.0332397
0.0340736
0.0327428
0.030162
0.0272608
0.0242163
0.020982
0.0175458
0.0139321
0.0101783
0.00632728
0.00242782
-0.00146705
-0.00530251
-0.00902491
-0.0125846
-0.0159385
-0.0190516
-0.0218987
-0.0244641
-0.0267417
-0.0287335
-0.0304485
-0.0318999
-0.0331073
-0.0341133
-0.0349806
-0.0356069
-0.0353474
-0.0335519
0.0379611
0.0384513
0.0366518
0.0335448
0.0301094
0.0265338
0.022772
0.0188139
0.0146886
0.0104378
0.0061089
0.00175347
-0.00257379
-0.00681782
-0.0109259
-0.0148503
-0.0185501
-0.0219926
-0.0251542
-0.0280205
-0.030586
-0.0328529
-0.0348296
-0.0365289
-0.0379707
-0.039198
-0.0402729
-0.0410927
-0.041016
-0.0394011
0.0448695
0.0446297
0.0420675
0.0382292
0.0340546
0.0297221
0.0251968
0.0204827
0.0156208
0.0106629
0.00566354
0.000679025
-0.00423452
-0.00902327
-0.0136378
-0.0180347
-0.0221779
-0.0260394
-0.0295983
-0.0328413
-0.0357666
-0.0383817
-0.0406847
-0.0426874
-0.0444084
-0.0458873
-0.0471813
-0.0482038
-0.0483915
-0.0471577
0.0570405
0.0550744
0.05088
0.0457375
0.0403261
0.0347433
0.0289825
0.0230794
0.0170934
0.0110867
0.00511886
-0.000754744
-0.00648359
-0.0120234
-0.0173366
-0.0223925
-0.0271669
-0.0316407
-0.0358015
-0.0396414
-0.0431515
-0.0463242
-0.0491732
-0.0517029
-0.0539214
-0.055853
-0.0575449
-0.0589807
-0.0598099
-0.0593699
0.00246558
0.00348099
0.00525218
0.00668268
0.00790344
0.00905097
0.0101557
0.0112255
0.0122699
0.0132982
0.0143193
0.0153417
0.016375
0.0174288
0.0185137
0.0196419
0.0208285
0.0220919
0.0234533
0.0249375
0.0265768
0.0284144
0.0305039
0.0329187
0.035759
0.0391733
0.0433624
0.0485849
0.0550489
0.0635509
0.00683713
0.0078835
0.0090688
0.0100733
0.0109844
0.0118619
0.0127171
0.0135544
0.0143812
0.0152056
0.0160357
0.0168797
0.0177462
0.0186445
0.019585
0.0205799
0.0216443
0.0227962
0.0240575
0.0254554
0.0270256
0.0288152
0.0308864
0.033325
0.0362518
0.0398444
0.0443577
0.0501626
0.0577455
0.0679502
0.00929163
0.0102288
0.011142
0.0119672
0.0127739
0.0135794
0.0143812
0.0151808
0.0159832
0.0167946
0.0176214
0.0184706
0.01935
0.0202684
0.0212359
0.0222649
0.0233702
0.0245704
0.0258883
0.0273531
0.0290029
0.0308883
0.0330775
0.0356653
0.0387857
0.0426336
0.0474965
0.0538009
0.0621999
0.0736289
0.0114499
0.0122774
0.0130755
0.01382
0.0145614
0.0153107
0.0160676
0.0168351
0.0176188
0.0184244
0.019258
0.0201265
0.0210375
0.0219998
0.0230237
0.024122
0.02531
0.0266069
0.0280368
0.0296307
0.0314289
0.0334851
0.0358719
0.0386895
0.0420799
0.046247
0.0514922
0.0582555
0.0672784
0.0795286
0.0134657
0.0141983
0.0149051
0.0155769
0.016257
0.0169562
0.0176759
0.0184192
0.0191908
0.0199958
0.0208402
0.0217303
0.0226737
0.0236794
0.0247581
0.0259229
0.0271899
0.0285794
0.0301167
0.0318345
0.0337756
0.0359963
0.0385729
0.0416104
0.0452561
0.0497211
0.0553159
0.0624884
0.0720617
0.0850506
0.0153084
0.0159561
0.0165847
0.0171951
0.0178264
0.0184883
0.0191819
0.0199099
0.0206764
0.0214863
0.0223448
0.0232584
0.0242345
0.0252822
0.0264124
0.0276386
0.0289775
0.0304501
0.032083
0.0339102
0.0359762
0.0383399
0.0410805
0.0443067
0.0481703
0.0528888
0.0587809
0.0663059
0.076367
0.0900559
0.0169729
0.0175443
0.018106
0.018666
0.0192589
0.0198927
0.020568
0.0212871
0.0220536
0.022872
0.0237474
0.0246858
0.0256947
0.0267832
0.0279624
0.029246
0.0306512
0.0321996
0.0339186
0.0358435
0.0380201
0.040509
0.0433919
0.0467801
0.0508295
0.0557623
0.0619056
0.0697303
0.0802056
0.0945156
0.0184529
0.0189556
0.0194597
0.0199784
0.0205411
0.0211536
0.0218163
0.0225309
0.0233008
0.0241299
0.025023
0.0259861
0.0270264
0.0281531
0.0293775
0.0307134
0.0321784
0.0337947
0.0355903
0.0376013
0.0398747
0.0424726
0.0454781
0.0490051
0.0532123
0.0583261
0.0646803
0.0727569
0.0835726
0.0984034
0.0197393
0.0201803
0.0206355
0.0211207
0.0216598
0.0222567
0.022911
0.0236243
0.0243994
0.0252398
0.0261502
0.0271363
0.0282053
0.0293664
0.0306308
0.0320127
0.03353
0.0352052
0.0370668
0.0391517
0.0415077
0.044198
0.047307
0.0509503
0.055289
0.0605527
0.0670812
0.0753654
0.086454
0.101704
0.0208248
0.0212117
0.0216264
0.0220852
0.0226063
0.0231917
0.0238407
0.0245546
0.0253356
0.026187
0.0271131
0.0281197
0.0292137
0.0304044
0.031703
0.033124
0.0346854
0.0364099
0.0383267
0.040473
0.0428972
0.0456635
0.0488572
0.0525954
0.0570408
0.0624254
0.0690941
0.0775448
0.0888428
0.104428
0.0217069
0.022048
0.0224302
0.0228688
0.0233766
0.0239538
0.0245997
0.025315
0.0261017
0.0269629
0.0279026
0.0289263
0.0300412
0.0312562
0.0325829
0.0340357
0.0356328
0.0373972
0.0393583
0.0415537
0.0440324
0.046859
0.0501198
0.0539327
0.0584618
0.063941
0.0707188
0.0792985
0.0907496
0.106601
0.0223882
0.0226924
0.0230498
0.0234737
0.0239719
0.0245435
0.0251876
0.0259047
0.0266965
0.0275656
0.0285162
0.0295536
0.0306848
0.0319189
0.0332674
0.0347447
0.0363693
0.0381643
0.0401593
0.0423922
0.0449124
0.0477848
0.0510963
0.0549656
0.0595577
0.0651076
0.071967
0.080642
0.0922
0.108257
0.0228768
0.0231535
0.0234934
0.0239072
0.0243989
0.0249669
0.0256101
0.0263288
0.0271244
0.0279996
0.0289583
0.0300056
0.0311487
0.0323966
0.0337608
0.0352559
0.0369002
0.0387171
0.0407363
0.0429959
0.0455455
0.0484504
0.0517979
0.055707
0.0603435
0.0659429
0.0728596
0.0816003
0.0932283
0.109435
0.0231854
0.0234443
0.0237732
0.0241808
0.0246686
0.0252345
0.0258773
0.0265972
0.0273955
0.0282747
0.0292385
0.0302923
0.0314431
0.0326998
0.034074
0.0355804
0.0372372
0.0390681
0.0411026
0.0433792
0.0459475
0.0488729
0.0522431
0.0561772
0.0608416
0.0664721
0.0734249
0.0822055
0.0938705
0.110185
0.0233305
0.0235807
0.0239044
0.0243091
0.0247952
0.0253602
0.0260029
0.0267234
0.027523
0.0284042
0.0293706
0.0304275
0.0315819
0.0328429
0.034222
0.0357337
0.0373966
0.0392341
0.041276
0.0435607
0.0461379
0.0490732
0.0524542
0.0564003
0.061078
0.0667232
0.0736933
0.0824921
0.0941681
0.110548
0.0233307
0.0235809
0.0239046
0.0243093
0.0247953
0.0253603
0.0260031
0.0267236
0.0275232
0.0284043
0.0293707
0.0304277
0.0315821
0.032843
0.0342221
0.0357338
0.0373967
0.0392342
0.0412761
0.0435607
0.046138
0.0490733
0.0524543
0.0564004
0.0610781
0.0667233
0.0736934
0.0824921
0.0941682
0.110549
0.0231859
0.0234448
0.0237737
0.0241813
0.0246691
0.025235
0.0258778
0.0265977
0.027396
0.0282751
0.029239
0.0302928
0.0314435
0.0327002
0.0340744
0.0355807
0.0372375
0.0390683
0.0411029
0.0433794
0.0459477
0.0488732
0.0522434
0.0561775
0.0608419
0.0664724
0.073425
0.0822056
0.0938707
0.110185
0.0228777
0.0231544
0.0234943
0.023908
0.0243997
0.0249677
0.0256109
0.0263296
0.0271252
0.0280004
0.028959
0.0300063
0.0311494
0.0323972
0.0337614
0.0352564
0.0369007
0.0387176
0.0407367
0.0429963
0.045546
0.0484509
0.0517984
0.0557074
0.0603439
0.0659433
0.0728598
0.0816005
0.0932286
0.109435
0.0223894
0.0226936
0.023051
0.0234749
0.023973
0.0245447
0.0251888
0.0259058
0.0266975
0.0275667
0.0285172
0.0295545
0.0306857
0.0319197
0.0332682
0.0347455
0.03637
0.038165
0.0401599
0.0423928
0.044913
0.0477854
0.0510969
0.0549662
0.0595583
0.0651082
0.0719674
0.0806424
0.0922005
0.108258
0.0217084
0.0220495
0.0224317
0.0228703
0.023378
0.0239552
0.0246011
0.0253163
0.026103
0.0269642
0.0279038
0.0289275
0.0300423
0.0312573
0.0325839
0.0340366
0.0356337
0.037398
0.0393591
0.0415544
0.0440331
0.0468597
0.0501205
0.0539334
0.0584625
0.0639418
0.0707195
0.0792992
0.0907504
0.106602
0.0208266
0.0212135
0.0216282
0.022087
0.0226081
0.0231934
0.0238424
0.0245562
0.0253371
0.0261885
0.0271146
0.028121
0.029215
0.0304056
0.0317042
0.0331251
0.0346864
0.036411
0.0383277
0.0404739
0.0428982
0.0456643
0.0488581
0.0525962
0.0570416
0.0624265
0.0690952
0.0775458
0.0888438
0.104428
0.0197413
0.0201823
0.0206376
0.0211228
0.0216618
0.0222586
0.0229128
0.0236261
0.0244011
0.0252415
0.0261519
0.0271379
0.0282068
0.0293678
0.0306321
0.032014
0.0335313
0.0352064
0.037068
0.0391529
0.0415088
0.044199
0.0473079
0.0509512
0.05529
0.060554
0.0670827
0.0753668
0.0864552
0.101704
0.0184552
0.0189579
0.019462
0.0199806
0.0205432
0.0211558
0.0218184
0.022533
0.0233028
0.0241318
0.0250248
0.0259878
0.0270281
0.0281547
0.029379
0.0307149
0.0321799
0.0337961
0.0355916
0.0376026
0.0398759
0.0424737
0.0454791
0.0490061
0.0532135
0.0583277
0.0646823
0.0727587
0.0835739
0.0984039
0.0169754
0.0175469
0.0181085
0.0186685
0.0192613
0.0198951
0.0205703
0.0212893
0.0220558
0.0228741
0.0237494
0.0246877
0.0256966
0.026785
0.0279641
0.0292477
0.0306528
0.0322012
0.0339202
0.0358449
0.0380214
0.0405103
0.043393
0.0467812
0.0508309
0.0557643
0.061908
0.0697324
0.0802069
0.0945161
0.0153111
0.0159588
0.0165873
0.0171977
0.0178289
0.0184908
0.0191844
0.0199123
0.0206788
0.0214885
0.022347
0.0232605
0.0242365
0.0252841
0.0264142
0.0276404
0.0289793
0.0304518
0.0320846
0.0339118
0.0359777
0.0383413
0.0410818
0.044308
0.048172
0.0528911
0.0587837
0.0663083
0.0763683
0.0900562
0.0134685
0.0142011
0.0149079
0.0155797
0.0162597
0.0169589
0.0176785
0.0184217
0.0191932
0.0199983
0.0208425
0.0217325
0.0226758
0.0236814
0.0247601
0.0259248
0.0271918
0.0285812
0.0301185
0.0318363
0.0337772
0.0359978
0.0385743
0.0416119
0.045258
0.0497238
0.055319
0.0624909
0.0720629
0.0850505
0.0114528
0.0122803
0.0130784
0.0138228
0.0145642
0.0153134
0.0160703
0.0168378
0.0176214
0.0184269
0.0192605
0.0201289
0.0210398
0.022002
0.0230259
0.024124
0.025312
0.0266089
0.0280388
0.0296326
0.0314307
0.0334868
0.0358735
0.0386914
0.0420821
0.0462499
0.0514954
0.058258
0.0672794
0.0795282
0.00929446
0.0102316
0.0111449
0.0119701
0.0127767
0.0135822
0.0143841
0.0151836
0.015986
0.0167973
0.017624
0.0184731
0.0193525
0.0202708
0.0212382
0.0222671
0.0233724
0.0245725
0.0258904
0.0273551
0.0290048
0.0308901
0.0330794
0.0356674
0.0387883
0.0426367
0.0474995
0.0538029
0.0622005
0.0736285
0.0068399
0.0078864
0.00907173
0.0100763
0.0109873
0.0118648
0.01272
0.0135573
0.014384
0.0152084
0.0160384
0.0168823
0.0177488
0.018647
0.0195874
0.0205823
0.0216466
0.0227984
0.0240596
0.0254575
0.0270277
0.0288172
0.0308885
0.0333274
0.0362546
0.0398473
0.0443602
0.050164
0.0577457
0.0679497
0.00246839
0.00348397
0.00525515
0.00668559
0.00790631
0.00905379
0.0101585
0.0112283
0.0122726
0.0133009
0.0143219
0.0153443
0.0163775
0.0174313
0.018516
0.0196442
0.0208307
0.022094
0.0234553
0.0249395
0.0265788
0.0284163
0.030506
0.0329212
0.0357617
0.0391757
0.0433641
0.0485853
0.0550487
0.0635506
0.0570405
0.0550746
0.05088
0.0457372
0.0403258
0.034743
0.0289822
0.0230789
0.0170926
0.0110857
0.0051174
-0.000756631
-0.0064859
-0.0120261
-0.0173396
-0.0223959
-0.0271706
-0.0316446
-0.0358057
-0.0396457
-0.0431559
-0.0463286
-0.0491777
-0.0517074
-0.0539258
-0.0558574
-0.0575493
-0.0589852
-0.0598146
-0.0593749
0.0448691
0.0446292
0.042067
0.0382289
0.0340545
0.0297219
0.0251965
0.0204821
0.0156198
0.0106615
0.00566179
0.000676912
-0.00423698
-0.00902605
-0.0136409
-0.0180381
-0.0221816
-0.0260434
-0.0296025
-0.0328457
-0.0357711
-0.0383863
-0.0406893
-0.042692
-0.044413
-0.0458918
-0.0471857
-0.0482082
-0.0483958
-0.047162
0.0379612
0.0384516
0.0366522
0.0335453
0.0301097
0.0265338
0.0227717
0.0188132
0.0146874
0.0104363
0.006107
0.00175126
-0.0025763
-0.00682062
-0.010929
-0.0148537
-0.0185537
-0.0219965
-0.0251584
-0.0280249
-0.0305906
-0.0328577
-0.0348346
-0.036534
-0.0379757
-0.0392029
-0.0402777
-0.0410972
-0.0410203
-0.0394051
0.0332408
0.0340747
0.0327437
0.0301626
0.0272609
0.0242159
0.0209812
0.0175445
0.0139305
0.0101764
0.00632511
0.00242543
-0.00146965
-0.00530533
-0.00902794
-0.0125879
-0.015942
-0.0190555
-0.0219029
-0.0244686
-0.0267465
-0.0287386
-0.0304539
-0.0319054
-0.0331129
-0.0341189
-0.0349859
-0.0356119
-0.0353519
-0.0335558
0.0298002
0.0307622
0.0297165
0.0275169
0.0250161
0.022371
0.0195364
0.0164999
0.0132831
0.00991929
0.00644798
0.00291518
-0.000627981
-0.00412767
-0.00753045
-0.0107863
-0.0138512
-0.0166896
-0.0192754
-0.0215926
-0.0236348
-0.0254045
-0.0269106
-0.0281665
-0.0291915
-0.0300263
-0.030732
-0.0312145
-0.0308511
-0.0289839
0.027186
0.0281692
0.0273082
0.0253971
0.023208
0.0208743
0.0183529
0.0156328
0.012733
0.00968378
0.00652186
0.00329077
3.97023e-05
-0.00317893
-0.00631252
-0.0093114
-0.0121317
-0.0147378
-0.0171034
-0.0192126
-0.021059
-0.022645
-0.0239798
-0.0250768
-0.0259547
-0.0266516
-0.0272269
-0.0275986
-0.0271742
-0.0252883
0.0251203
0.0260783
0.0253394
0.0236536
0.0217135
0.0196308
0.0173635
0.0149017
0.0122631
0.00947506
0.00657195
0.0035951
0.000591827
-0.00238697
-0.00528982
-0.00806782
-0.0106777
-0.0130839
-0.0152607
-0.0171922
-0.0188723
-0.0203035
-0.021495
-0.0224602
-0.0232174
-0.0238021
-0.0242728
-0.0245592
-0.0241021
-0.0222263
0.0234517
0.0243482
0.0236934
0.0221864
0.0204513
0.0185764
0.0165207
0.0142757
0.0118577
0.0092918
0.00661012
0.00385205
0.00106312
-0.00170734
-0.00440909
-0.00699426
-0.00942025
-0.0116523
-0.0136649
-0.0154426
-0.0169796
-0.0182784
-0.0193487
-0.0202036
-0.020861
-0.0213543
-0.0217405
-0.0219606
-0.0214893
-0.0196399
0.022062
0.0228781
0.0222891
0.0209298
0.0193648
0.0176655
0.0157903
0.0137314
0.0115037
0.00913053
0.00664196
0.00407556
0.00147515
-0.00111149
-0.00363546
-0.00604997
-0.00831336
-0.0103916
-0.0122597
-0.0139028
-0.0153152
-0.0165
-0.0174665
-0.0182283
-0.0188024
-0.0192207
-0.0195383
-0.019707
-0.0192343
-0.0174197
0.0208755
0.0215987
0.02106
0.0198351
0.0184134
0.0168646
0.0151465
0.0132503
0.01119
0.00898694
0.00666964
0.00427386
0.00184174
-0.000580447
-0.00294517
-0.00520682
-0.00732472
-0.00926563
-0.0110053
-0.0125293
-0.0138324
-0.0149177
-0.0157948
-0.0164773
-0.0169817
-0.017338
-0.0175996
-0.0177288
-0.017263
-0.0154872
0.0198409
0.0204611
0.0199603
0.018861
0.0175675
0.0161483
0.0145687
0.0128176
0.0109069
0.00885657
0.0066935
0.0044518
0.00217199
-0.000101162
-0.00232152
-0.00444467
-0.00643099
-0.00824808
-0.00987245
-0.0112901
-0.0124963
-0.0134942
-0.0142935
-0.0149079
-0.0153534
-0.0156583
-0.0158739
-0.0159728
-0.0155198
-0.0137847
0.0189161
0.0194363
0.0189642
0.0179725
0.016803
0.0154968
0.014041
0.0124212
0.0106463
0.00873511
0.0067129
0.00461223
0.00247204
0.000335583
-0.00175238
-0.00374868
-0.00561474
-0.00731906
-0.00883886
-0.0101607
-0.0112801
-0.0122006
-0.0129318
-0.0134873
-0.0138829
-0.0141449
-0.0143234
-0.014399
-0.0139628
-0.0122689
0.0180723
0.018493
0.0180481
0.0171514
0.0160963
0.0148948
0.0135501
0.0120509
0.0104013
0.00861852
0.00672664
0.00475669
0.00274605
0.000736453
-0.00122874
-0.00310758
-0.00486259
-0.00646317
-0.00788726
-0.00912194
-0.0101631
-0.0110144
-0.0116854
-0.0121896
-0.0125426
-0.0127692
-0.0129173
-0.0129754
-0.0125592
-0.0109067
0.0172891
0.0176085
0.0171923
0.0163829
0.0154285
0.014331
0.0130856
0.0116979
0.0101656
0.00850302
0.00673324
0.00488593
0.0029969
0.00110637
-0.000743687
-0.00251261
-0.004164
-0.00566817
-0.0070038
-0.00815846
-0.00912837
-0.00991725
-0.0105348
-0.0109943
-0.0113109
-0.011508
-0.0116316
-0.011677
-0.0112829
-0.00967233
0.0165451
0.0167701
0.016384
0.0156517
0.0147871
0.0137936
0.0126405
0.0113556
0.00993395
0.00838516
0.00673109
0.00500014
0.00322657
0.00144906
-0.000291846
-0.00195677
-0.00351044
-0.00492409
-0.00617711
-0.00725759
-0.00816203
-0.00889425
-0.00946384
-0.00988396
-0.0101696
-0.0103423
-0.0104465
-0.0104836
-0.0101137
-0.00854618
0.0158227
0.0159641
0.0156086
0.0149488
0.0141665
0.0132679
0.0122085
0.011018
0.00970141
0.00826168
0.00671849
0.00509915
0.00343641
0.00176737
0.000131119
-0.00143432
-0.00289481
-0.00422255
-0.00539764
-0.00640866
-0.00725238
-0.00793269
-0.00845907
-0.00884454
-0.00910363
-0.00925674
-0.00934621
-0.00937864
-0.00903494
-0.0075131
0.015112
0.0151773
0.014854
0.0142645
0.0135572
0.0127436
0.0117828
0.0106801
0.00946363
0.00812942
0.00669364
0.0051825
0.0036273
0.00206355
0.000528753
-0.000940429
-0.00231108
-0.00355636
-0.00465712
-0.00560243
-0.00638932
-0.0070217
-0.00750896
-0.00786388
-0.00810059
-0.00823831
-0.00831735
-0.00834876
-0.00803325
-0.00656184
0.0144051
0.0143984
0.014108
0.0135869
0.0129518
0.012217
0.0113538
0.0103379
0.00921667
0.00798535
0.00665469
0.00524952
0.00379981
0.00233935
0.000904035
-0.00047095
-0.00175394
-0.00291917
-0.00394824
-0.00483073
-0.00556392
-0.00615177
-0.00660347
-0.00693155
-0.00714982
-0.00727629
-0.00734916
-0.00738318
-0.00709807
-0.0056844
0.0136952
0.0136175
0.0133614
0.0129072
0.0123427
0.0116839
0.0109123
0.00998802
0.00895657
0.00782626
0.00659963
0.00529935
0.00395417
0.00259617
0.00125952
-2.21761e-05
-0.00121865
-0.00230522
-0.00326434
-0.00408614
-0.00476817
-0.00531438
-0.00573381
-0.00603867
-0.00624233
-0.00636175
-0.00643286
-0.0064733
-0.00622115
-0.00487563
0.0129736
0.0128274
0.0126071
0.0122187
0.0117245
0.0111376
0.0104509
0.00962589
0.0086802
0.00764916
0.00652639
0.00533092
0.00409038
0.00283513
0.00159745
0.000409228
-0.000700768
-0.00170912
-0.0025992
-0.00336176
-0.00399463
-0.0045018
-0.00489207
-0.0051773
-0.00537037
-0.00548713
-0.00556128
-0.00561243
-0.00539635
-0.00413293
0.0122313
0.0120207
0.0118378
0.0115141
0.0110893
0.0105739
0.00996762
0.00924386
0.00838512
0.00745124
0.00643273
0.00534295
0.0042082
0.00305707
0.00191983
0.000826436
-0.000196071
-0.00112568
-0.00194683
-0.00265099
-0.00323633
-0.00370687
-0.00407114
-0.00434059
-0.00452748
-0.00464655
-0.00472899
-0.00479565
-0.00461956
-0.00345599
0.0114593
0.0111905
0.011047
0.0107873
0.0104309
0.00998729
0.00946018
0.00883463
0.00806863
0.00722923
0.00631608
0.00533388
0.00430708
0.00326261
0.00222849
0.00123246
0.000299618
-0.000549713
-0.00130125
-0.0019473
-0.00248648
-0.00292281
-0.00326452
-0.0035225
-0.00370827
-0.00383555
-0.00393249
-0.00402013
-0.00388866
-0.00284648
0.0106465
0.0103291
0.0102276
0.0100323
0.00974445
0.00937409
0.00892481
0.00839156
0.00772742
0.00697944
0.00617339
0.00530175
0.00438621
0.00345216
0.00252515
0.00163038
0.000790599
2.41443e-05
-0.000656277
-0.00124404
-0.00173831
-0.00214309
-0.00246618
-0.00271778
-0.00290858
-0.00305077
-0.00316979
-0.00328491
-0.00320373
-0.00230769
0.00977757
0.00942752
0.00937224
0.00924278
0.00902438
0.00872841
0.00835661
0.00791116
0.00735635
0.00670004
0.00600202
0.0052445
0.00444457
0.00362596
0.00281145
0.00202325
0.00128127
0.000601366
-5.71872e-06
-0.000534693
-0.000985396
-0.00136181
-0.00167108
-0.00192251
-0.00212564
-0.00229082
-0.00244035
-0.00259037
-0.00256676
-0.00184405
0.0088327
0.00847328
0.00846994
0.00840958
0.00826381
0.00804383
0.00775099
0.00739255
0.0069479
0.0063889
0.00579927
0.00516001
0.00448104
0.00378413
0.0030889
0.00241395
0.00177571
0.00118692
0.000655862
0.000186141
-0.000222897
-0.00057504
-0.000876444
-0.00113522
-0.00135937
-0.00155725
-0.00174701
-0.00194071
-0.00198273
-0.00146026
0.00779344
0.00746285
0.00751552
0.00752604
0.0074576
0.00731726
0.00710574
0.0068349
0.00649675
0.00604215
0.00556085
0.00504471
0.00449315
0.00392564
0.00335827
0.00280527
0.00227862
0.00178703
0.00133559
0.000925576
0.000555397
0.000222641
-7.81376e-05
-0.000353567
-0.000609398
-0.000851275
-0.00109261
-0.0013394
-0.00145645
-0.00115969
0.00662779
0.00642307
0.00654574
0.00661681
0.00662143
0.00655938
0.00642692
0.00623875
0.00599793
0.00565337
0.00527671
0.00488767
0.00447165
0.00404501
0.00361965
0.003204
0.00280382
0.00242195
0.00205868
0.00171175
0.0013782
0.00106024
0.000750861
0.000445837
0.000143146
-0.00015887
-0.000467827
-0.000781639
-0.000990223
-0.000942482
0.00514072
0.00529753
0.00558254
0.00571203
0.00577179
0.0057744
0.00571023
0.00559148
0.00543302
0.00520237