/*--------------------------------*- C++ -*----------------------------------*\
  =========                 |
  \\      /  F ield         | OpenFOAM: The Open Source CFD Toolbox
   \\    /   O peration     | Website:  https://openfoam.org
    \\  /    A nd           | Version:  12
     \\/     M anipulation  |
\*---------------------------------------------------------------------------*/
FoamFile
{
    format      ascii;
    class       volScalarField;
    location    "220";
    object      pPrime2Mean;
}
// * * * * * * * * * * * * * * * * * * * * * * * * * * * * * * * * * * * * * //

dimensions      [0 4 -4 0 0 0 0];

internalField   nonuniform List<scalar> 
6750
(
0.00589924
0.00589049
0.00587932
0.00586943
0.0058591
0.00590303
0.00589098
0.00587205
0.00584959
0.00582609
0.00593241
0.00591747
0.00589291
0.00586144
0.00582764
0.00598627
0.00597035
0.0059439
0.00590946
0.00587254
0.00606145
0.00604687
0.00602256
0.00599055
0.00595627
0.0061527
0.0061415
0.00612267
0.00609734
0.00607008
0.00625337
0.0062471
0.00623625
0.00622073
0.00620386
0.00635646
0.00635612
0.00635485
0.00635122
0.00634706
0.00645543
0.00646146
0.00647047
0.00647971
0.00648946
0.00654479
0.00655707
0.00657624
0.00659826
0.00662197
0.00662038
0.00663836
0.0066668
0.00670056
0.00673723
0.00667953
0.00670231
0.00673853
0.00678222
0.00682994
0.00672099
0.0067474
0.00678951
0.00684076
0.006897
0.00674472
0.00677348
0.00681939
0.00687556
0.00693739
0.00675168
0.00678151
0.00682911
0.00688752
0.00695194
0.00674347
0.00677314
0.0068205
0.00687864
0.00694276
0.00672007
0.00674836
0.00679355
0.00684889
0.00690981
0.00668003
0.00670565
0.00674657
0.00679645
0.00685117
0.00662265
0.00664436
0.00667897
0.00672079
0.00676644
0.0065482
0.00656491
0.00659139
0.00662287
0.006657
0.00645818
0.00646904
0.00648601
0.00650545
0.0065263
0.00635549
0.00636
0.00636668
0.00637319
0.00637991
0.00624445
0.00624258
0.00623893
0.00623255
0.00622532
0.00613072
0.00612294
0.00610976
0.00609155
0.00607169
0.00602094
0.00600828
0.00598723
0.00595932
0.00592922
0.00592217
0.00590621
0.0058798
0.00584536
0.00580844
0.00584112
0.00582389
0.00579548
0.00575877
0.00571943
0.00578303
0.00576688
0.00574047
0.00570687
0.00567086
0.00575109
0.00573794
0.00571733
0.00569287
0.00566731
0.00574629
0.00573664
0.0057241
0.00571264
0.00570094
0.00582421
0.00577892
0.00569233
0.00557015
0.00541453
0.00522709
0.00500843
0.0047592
0.00448179
0.00417989
0.00385706
0.00352126
0.00317972
0.00284082
0.00251292
0.00220351
0.00191857
0.00166219
0.00143628
0.00124057
0.00107321
0.000933715
0.000817431
0.000721202
0.000642139
0.000577484
0.00052495
0.000482432
0.000448412
0.000426825
0.00582979
0.00575485
0.00564458
0.0055028
0.00533075
0.0051295
0.0049004
0.00464555
0.00436819
0.004072
0.00376002
0.00344024
0.00311826
0.00280085
0.00249457
0.00220519
0.00193735
0.00169424
0.00147759
0.00128787
0.00112462
0.00098424
0.000866239
0.000767547
0.000685543
0.000617977
0.000562735
0.000517664
0.000480463
0.000451789
0.00580925
0.00571101
0.00558217
0.00542629
0.00524317
0.00503381
0.00479975
0.00454343
0.00426855
0.00397827
0.00367666
0.0033708
0.00306533
0.00276585
0.00247754
0.00220487
0.00195142
0.00171971
0.0015112
0.00132631
0.00116461
0.00102503
0.000905902
0.000805148
0.000720643
0.000650337
0.000592275
0.000544422
0.000505094
0.000474916
0.00577583
0.00566232
0.00552023
0.00535439
0.0051647
0.00495148
0.00471613
0.00446127
0.00419053
0.00390631
0.00361403
0.0033193
0.00302634
0.00274
0.00246468
0.0022041
0.00196122
0.00173816
0.00153621
0.00135581
0.00119669
0.00105816
0.000938847
0.000837066
0.000750984
0.000678681
0.000618126
0.000567403
0.00052545
0.000495776
0.00573826
0.00561404
0.00546195
0.0052885
0.00509453
0.00487971
0.00464523
0.0043935
0.00412772
0.00384987
0.00356596
0.00328032
0.00299704
0.00272054
0.00245476
0.00220308
0.00196818
0.00175197
0.00155561
0.00137953
0.00122349
0.00108679
0.000968256
0.000866407
0.000779551
0.00070585
0.000643277
0.000589788
0.000545495
0.000516324
0.00570245
0.00557006
0.00541053
0.00523128
0.00503418
0.00481909
0.00458656
0.00433868
0.00407797
0.00380633
0.00352958
0.00325123
0.00297531
0.002706
0.00244708
0.00220183
0.00197285
0.001762
0.00157036
0.00139829
0.00124547
0.00111112
0.000994049
0.000892805
0.000805748
0.000731134
0.000666923
0.000611189
0.000564967
0.000536473
0.00567209
0.00553333
0.00536798
0.00518449
0.00498518
0.00477038
0.00454025
0.00429634
0.00404023
0.00377424
0.00350332
0.00323058
0.00295999
0.00269565
0.00244136
0.00220048
0.00197568
0.00176886
0.00158108
0.00141257
0.0012629
0.00113111
0.00101587
0.000915658
0.000828818
0.000753684
0.000688282
0.000630826
0.000583086
0.000555439
0.0056502
0.00550638
0.00533632
0.00514944
0.00494883
0.0047344
0.00450666
0.00426633
0.00401406
0.00375282
0.00348629
0.00321749
0.00295036
0.00268902
0.00243743
0.00219913
0.00197699
0.00177299
0.00158818
0.0014227
0.00127594
0.00114672
0.00103351
0.000934609
0.000848361
0.000772995
0.000706804
0.000648175
0.000599287
0.000572482
0.00563954
0.00549152
0.0053173
0.00512743
0.00492582
0.00471183
0.00448611
0.00424862
0.00399939
0.00374164
0.00347796
0.0032114
0.00294594
0.00268578
0.00243514
0.00219784
0.00197696
0.00177464
0.00159193
0.00142889
0.0012847
0.00115793
0.00104679
0.00094943
0.000864089
0.000788929
0.000722378
0.000662885
0.000613122
0.000587002
0.00564281
0.00549104
0.00531274
0.00511985
0.0049171
0.00470356
0.00447913
0.0042434
0.00399626
0.0037405
0.00347805
0.00321203
0.00294645
0.00268575
0.00243442
0.00219661
0.0019757
0.00177395
0.00159248
0.00143123
0.00128918
0.00116465
0.0010556
0.000959951
0.000875738
0.000801215
0.000734672
0.000674585
0.000624146
0.000598468
0.00566279
0.00550729
0.00532457
0.00512812
0.0049237
0.00471015
0.00448629
0.00425114
0.0040049
0.0037495
0.00348658
0.00321931
0.00295182
0.00268883
0.00243521
0.00219546
0.00197324
0.001771
0.00158988
0.00142974
0.00128937
0.00116683
0.00105981
0.000965989
0.000883201
0.000809632
0.000743357
0.000682906
0.000631946
0.000606432
0.00570252
0.00554287
0.00535497
0.00515403
0.00494711
0.00473271
0.00450835
0.00427253
0.00402578
0.00376897
0.00350376
0.00323336
0.00296209
0.00269504
0.0024375
0.00219436
0.00196957
0.00176576
0.00158411
0.00142438
0.0012852
0.00116437
0.00105932
0.000967429
0.000886272
0.000813931
0.000748099
0.000687476
0.000636169
0.000610547
0.00576554
0.00560086
0.0054067
0.00520004
0.00498957
0.00477274
0.00454643
0.00430866
0.00405962
0.00379949
0.00353
0.00325444
0.00297743
0.00270447
0.00244133
0.00219331
0.00196466
0.00175818
0.00157509
0.00141509
0.0012766
0.0011572
0.00105401
0.000964102
0.000884705
0.000813638
0.00074853
0.000687975
0.000636538
0.000610585
0.00585611
0.00568497
0.00548309
0.00526898
0.00505324
0.00483233
0.00460234
0.00436092
0.00410751
0.00384193
0.00356593
0.00328299
0.0029981
0.00271726
0.00244676
0.0021923
0.00195844
0.00174815
0.00156272
0.00140175
0.00126349
0.00114523
0.00104378
0.000955817
0.000878302
0.000808632
0.000744417
0.000684206
0.000632927
0.000606484
0.00597937
0.00579992
0.0055884
0.00536465
0.00514159
0.00491442
0.00467848
0.00443125
0.00417103
0.00389747
0.0036124
0.00331959
0.00302448
0.00273364
0.00245388
0.00219132
0.00195083
0.00173555
0.00154684
0.00138423
0.00124573
0.00112834
0.00102847
0.000942447
0.000866835
0.000798703
0.000735636
0.00067613
0.000625401
0.000598435
0.00614183
0.00595179
0.00572836
0.00549233
0.00525927
0.005023
0.00477844
0.00452243
0.00425228
0.00396767
0.00367052
0.00336496
0.00305702
0.00275386
0.00246279
0.00219036
0.00194173
0.00172026
0.00152732
0.00136236
0.00122316
0.00110632
0.00100788
0.00092377
0.000850129
0.000783759
0.000722216
0.00066392
0.000614302
0.000587011
0.00635199
0.00614869
0.00591072
0.00565906
0.00541259
0.00516363
0.00490697
0.0046381
0.00435405
0.00405451
0.00374162
0.00342
0.00309629
0.00277822
0.00247358
0.00218936
0.00193104
0.00170215
0.00150404
0.001336
0.00119556
0.00107893
0.000981734
0.000899509
0.000828085
0.00076388
0.000704439
0.000648113
0.00060045
0.000573373
0.00662135
0.0064016
0.00614586
0.00587409
0.00560974
0.00534356
0.00506975
0.00478282
0.0044798
0.00416047
0.0038274
0.00348581
0.00314292
0.002807
0.00248632
0.00218828
0.00191865
0.00168107
0.00147683
0.00130498
0.00116274
0.00104599
0.000949926
0.000869682
0.000800793
0.000739445
0.000683028
0.000629854
0.000585459
0.000559654
0.0069657
0.00672523
0.00644741
0.00614962
0.00586145
0.00557186
0.005274
0.00496228
0.0046338
0.00428864
0.00392997
0.00356367
0.00319756
0.00284044
0.00250102
0.00218703
0.00190444
0.00165689
0.00144551
0.00126911
0.00112458
0.00100747
0.000912586
0.000834648
0.000768918
0.000711455
0.000659557
0.000611412
0.000572293
0.000549544
0.00740687
0.00713959
0.0068337
0.00650169
0.00618149
0.00585958
0.00552884
0.00518351
0.00482124
0.00444267
0.00405172
0.00365497
0.00326091
0.00287879
0.0025177
0.00218556
0.00188832
0.00162948
0.00140996
0.0012283
0.00108112
0.000963637
0.000870318
0.000795514
0.000734197
0.000682293
0.000637219
0.000597105
0.000566347
0.000549462
0.00797538
0.00767265
0.00733004
0.00695225
0.00658786
0.00622152
0.00584577
0.00545533
0.0050485
0.00462687
0.0041953
0.00376121
0.00333366
0.00292231
0.00253639
0.00218377
0.00187017
0.00159877
0.00137019
0.0011827
0.00103271
0.000915214
0.00082441
0.000754353
0.000699725
0.000656406
0.000621897
0.00059475
0.000577225
0.000570742
0.0087141
0.00836269
0.00797122
0.00753082
0.00710519
0.00667738
0.00624002
0.00578884
0.00532328
0.00484626
0.00436377
0.00388406
0.00341665
0.00297131
0.00255712
0.00218155
0.00184985
0.0015647
0.00132632
0.00113273
0.000980206
0.000863676
0.000777254
0.000714854
0.000670977
0.000641523
0.000624171
0.000618081
0.000621646
0.000633297
0.00968094
0.00926194
0.00880489
0.00827747
0.00776645
0.00725324
0.00673092
0.00619773
0.00565483
0.00510676
0.00456069
0.00402549
0.0035108
0.0030261
0.00257984
0.00217872
0.0018272
0.00152728
0.0012787
0.00107925
0.000925187
0.000811637
0.000732971
0.000683302
0.00065722
0.000650749
0.000661742
0.000690336
0.000727318
0.00077002
0.0109489
0.0104383
0.00989234
0.00924471
0.00861453
0.0079818
0.00734252
0.00669878
0.00605428
0.00541537
0.00479017
0.00418769
0.00361708
0.00308688
0.00260436
0.00217495
0.00180198
0.00148657
0.00122793
0.00102367
0.000870264
0.000763416
0.000698332
0.000670004
0.000673687
0.00070562
0.000763702
0.000848625
0.00093718
0.00102954
0.0126029
0.011971
0.0113087
0.010498
0.00970244
0.0089025
0.00810313
0.00731141
0.00653432
0.00577993
0.00505666
0.00437282
0.00373618
0.00315352
0.00263012
0.00216956
0.00177361
0.00144238
0.00117454
0.000967754
0.000819091
0.00072543
0.000683696
0.000690829
0.000743702
0.000839053
0.000973441
0.00114625
0.00131048
0.00147486
0.0147305
0.013941
0.013128
0.0120995
0.0110772
0.0100512
0.00903836
0.00805332
0.00710675
0.00620787
0.00536443
0.00458294
0.00386869
0.00322556
0.00265597
0.00216095
0.00174036
0.00139315
0.00111772
0.000912225
0.000775065
0.000705246
0.00070258
0.000767272
0.000898878
0.0010945
0.00134714
0.00164959
0.0019184
0.00218048
0.0173786
0.0163847
0.0153695
0.014062
0.0127503
0.0114409
0.0101636
0.00894155
0.00778892
0.00671534
0.00572723
0.00482857
0.0040214
0.00330608
0.00268161
0.00214612
0.00169743
0.00133351
0.0010529
0.000855027
0.000740554
0.000711647
0.000771888
0.000925345
0.00117439
0.00151565
0.00193614
0.00241635
0.00283099
0.00322243
0.0207305
0.0193951
0.0180504
0.0164154
0.0147839
0.0131659
0.0115966
0.0101039
0.00870581
0.00741493
0.00623903
0.00518194
0.00424424
0.00342404
0.00271798
0.00212215
0.00163308
0.00124843
0.000967506
0.000791394
0.000722894
0.000766172
0.00092595
0.001206
0.00160693
0.00212272
0.00273726
0.00342885
0.00407587
0.00469862
0.0259351
0.0242123
0.0224713
0.0204537
0.0184196
0.0163664
0.0143419
0.0123919
0.0105525
0.00885169
0.0073081
0.00593146
0.0047244
0.00368478
0.00280806
0.00208944
0.00152557
0.00111536
0.000860569
0.000765143
0.000833391
0.00106787
0.00146744
0.00202382
0.00272015
0.00352868
0.00441409
0.00535439
0.00617838
0.00699709
0.0421629
0.0390731
0.0355639
0.0319956
0.0284368
0.0248872
0.021426
0.0181293
0.0150593
0.0122647
0.00977666
0.00760873
0.00576121
0.00422643
0.00299422
0.00205671
0.00141169
0.00106436
0.00102596
0.00131109
0.00193352
0.00290034
0.00420545
0.00582633
0.00772261
0.00983639
0.0120954
0.014481
0.0169284
0.0191399
0.00583783
0.00580748
0.00578115
0.00575626
0.00573418
0.00571649
0.00570528
0.00570284
0.0057116
0.00573412
0.00577325
0.00583217
0.00591463
0.00602514
0.00616923
0.00635383
0.00658797
0.0068839
0.0072587
0.00773642
0.00835116
0.00915097
0.0102008
0.0115804
0.0133813
0.0157026
0.0186511
0.0225464
0.0284463
0.0456166
0.00580404
0.00578192
0.00576314
0.00574782
0.00573849
0.00573629
0.00574259
0.00575912
0.00578792
0.00583143
0.00589252
0.00597463
0.00608188
0.00621928
0.00639304
0.00661102
0.00688352
0.00722442
0.00765286
0.00819546
0.00888957
0.0097872
0.0109577
0.0124854
0.0144659
0.0170144
0.0203171
0.0247582
0.0311704
0.049328
0.00580812
0.00580333
0.00580115
0.00580188
0.00580832
0.00582208
0.00584499
0.0058791
0.00592668
0.00599033
0.0060731
0.00617863
0.00631133
0.00647662
0.00668125
0.00693388
0.00724602
0.00763305
0.00811604
0.00872395
0.00949706
0.0104909
0.0117788
0.0134483
0.0155972
0.018356
0.0219827
0.0269222
0.0336952
0.0534451
0.0058595
0.0058723
0.00588743
0.00590521
0.00592881
0.00596017
0.00600138
0.00605468
0.00612259
0.00620793
0.00631402
0.00644478
0.00660495
0.00680034
0.00703828
0.00732816
0.00768243
0.00811771
0.00865631
0.00932863
0.0101763
0.0112562
0.0126419
0.0144187
0.0166793
0.0195676
0.0234371
0.0288868
0.0359099
0.057867
0.00595157
0.00598034
0.00601212
0.00604687
0.00608799
0.00613777
0.00619852
0.00627265
0.00636281
0.00647206
0.00660395
0.00676268
0.00695335
0.00718221
0.00745712
0.00778822
0.00818888
0.00867665
0.00927479
0.0100144
0.0109377
0.0121009
0.0135757
0.0154413
0.0177812
0.0207503
0.0248195
0.0308284
0.0379164
0.0625441
0.00607492
0.00611777
0.00616502
0.00621631
0.00627498
0.00634351
0.00642445
0.00652037
0.00663412
0.0067689
0.00692848
0.00711731
0.0073408
0.00760559
0.00792004
0.00829495
0.00874432
0.00928647
0.00994509
0.0107514
0.0117467
0.0129856
0.0145354
0.0164662
0.0188489
0.0218498
0.026085
0.0327702
0.0397274
0.0676508
0.00621909
0.0062742
0.00633552
0.00640258
0.00647845
0.00656568
0.00666696
0.00678504
0.0069229
0.00708396
0.00727214
0.00749212
0.00774953
0.00805135
0.00840634
0.00882579
0.0093242
0.00992015
0.0106374
0.0115065
0.0125675
0.0138719
0.0154813
0.0174539
0.0198456
0.0228328
0.0272046
0.0347526
0.0413931
0.0734326
0.00637323
0.0064389
0.00651278
0.00659452
0.00668683
0.00679223
0.00691344
0.00705332
0.00721502
0.00740209
0.00761863
0.00786947
0.00816042
0.0084987
0.00889342
0.00935614
0.00990158
0.0105483
0.0113198
0.0122457
0.013364
0.0147229
0.0163775
0.0183724
0.0207449
0.0236797
0.0281558
0.0368144
0.0429819
0.0801528
0.00652668
0.00660139
0.00668631
0.00678136
0.00688891
0.00701139
0.00715149
0.00731211
0.00749649
0.00770829
0.00795173
0.00823179
0.00855439
0.00892694
0.00935872
0.00986144
0.0104498
0.0111422
0.0119615
0.0129364
0.0141028
0.0155059
0.017194
0.0191968
0.0215294
0.0243812
0.0289218
0.0389825
0.0445776
0.0880233
0.00666979
0.00675214
0.00684658
0.00695335
0.00707457
0.00721251
0.00736981
0.00754935
0.00775441
0.00798869
0.00825649
0.00856287
0.0089139
0.00931706
0.00978169
0.0103195
0.010945
0.0116764
0.0125359
0.0135511
0.0147564
0.0161943
0.0179075
0.0199093
0.0221892
0.0249386
0.0294965
0.041262
0.0462666
0.0971023
0.00679465
0.00688329
0.00698568
0.00710241
0.00723537
0.0073867
0.00755892
0.00775488
0.00797783
0.00823149
0.00852021
0.00884908
0.00922427
0.00965328
0.0101454
0.0107122
0.0113682
0.0121309
0.0130224
0.0140693
0.0153047
0.0167695
0.0185019
0.0204986
0.0227203
0.0253607
0.0298876
0.0436234
0.0481104
0.107169
0.00689545
0.00698906
0.0070978
0.00722258
0.00736508
0.00752733
0.00771173
0.00792105
0.00815851
0.00842783
0.00873338
0.00908029
0.00947472
0.00992415
0.0104378
0.0110271
0.0117063
0.012493
0.0134083
0.0144785
0.0157359
0.0172205
0.0189679
0.0209589
0.0231233
0.0256605
0.0301165
0.0459873
0.0501077
0.1176
0.00696871
0.00706598
0.00717943
0.00731023
0.0074599
0.00763032
0.00782382
0.0080431
0.00829135
0.00857229
0.00889028
0.00925045
0.00965892
0.0101231
0.0106522
0.0112575
0.0119532
0.0127564
0.0136882
0.0147742
0.0160462
0.0175446
0.0193034
0.0212898
0.0234029
0.0258522
0.0302147
0.0482188
0.0521617
0.127407
0.00701317
0.00711282
0.00722936
0.00736412
0.00751846
0.00769422
0.00789361
0.00811933
0.00837455
0.008663
0.008989
0.00935765
0.00977502
0.0102485
0.0107873
0.0114025
0.0121083
0.0129217
0.0138634
0.0149587
0.0162393
0.0177459
0.0195126
0.021496
0.0235685
0.0259524
0.0302193
0.0500929
0.05403
0.13536
0.00702962
0.00713042
0.00724847
0.00738513
0.00754173
0.00772001
0.00792219
0.00815094
0.00840946
0.00870145
0.0090312
0.00940378
0.00982525
0.010303
0.0108462
0.011466
0.0121765
0.0129946
0.0139409
0.0150405
0.0163251
0.0178357
0.0196069
0.0215897
0.0236402
0.0259893
0.0301833
0.05117
0.055209
0.139892
0.0070203
0.00712113
0.00723922
0.00737592
0.0075325
0.00771074
0.00791285
0.00814152
0.00839993
0.00869178
0.00902135
0.00939369
0.0098149
0.0102924
0.0108354
0.0114552
0.0121656
0.0129839
0.0139304
0.0150304
0.0163155
0.017827
0.0195992
0.0215831
0.0236343
0.0259845
0.0301728
0.0511504
0.0551949
0.140065
0.00698515
0.00708493
0.00720162
0.00733649
0.00749086
0.00766653
0.00786576
0.00809125
0.00834619
0.00863425
0.00895973
0.00932771
0.00974434
0.0102171
0.0107554
0.0113704
0.0120763
0.0128901
0.0138326
0.014929
0.0162114
0.0177205
0.0194903
0.0214766
0.0235515
0.0259385
0.0301898
0.0500409
0.0539932
0.135858
0.00692215
0.00701967
0.00713342
0.00726452
0.00741435
0.00758479
0.00777816
0.00799718
0.00824503
0.0085254
0.00884261
0.00920179
0.00960918
0.0100724
0.0106007
0.0112057
0.0119016
0.0127056
0.0136388
0.0147269
0.0160019
0.0175043
0.019268
0.0212591
0.0233763
0.0258305
0.0301726
0.0481519
0.0521155
0.128164
0.00683098
0.00692497
0.00703419
0.00715951
0.00730243
0.00746493
0.00764937
0.00785853
0.0080956
0.00836426
0.00866888
0.00901462
0.00940776
0.00985598
0.0103687
0.0109577
0.0116373
0.0124251
0.0133426
0.0144158
0.0156774
0.0171674
0.018921
0.020918
0.0230886
0.0256331
0.0300708
0.045926
0.0500663
0.118546
0.00671328
0.00680246
0.00690554
0.0070231
0.0071568
0.0073087
0.00748126
0.00767728
0.00789996
0.00815301
0.00844078
0.00876843
0.00914227
0.00957002
0.0100612
0.0106278
0.0112842
0.0120486
0.0129427
0.0139935
0.0152341
0.0167052
0.0184444
0.020448
0.0226786
0.0253303
0.0298488
0.0435856
0.0480853
0.108237
0.00657291
0.006656
0.00675138
0.0068593
0.0069816
0.00712048
0.00727847
0.0074584
0.00766346
0.00789734
0.00816433
0.00846957
0.00881931
0.00922128
0.00968511
0.0102227
0.0108489
0.0115821
0.0124447
0.0134643
0.0146754
0.0161199
0.01784
0.0198496
0.0221418
0.0249085
0.0294746
0.0412602
0.0462673
0.0982376
0.00641597
0.0064917
0.00657788
0.00667441
0.00678342
0.00690723
0.00704842
0.00720983
0.00739461
0.00760635
0.00784927
0.00812842
0.00844994
0.00882147
0.00925254
0.0097552
0.0103444
0.0110387
0.0118612
0.0128406
0.0140127
0.015422
0.0171168
0.0191284
0.0214777
0.0243553
0.0289251
0.0390232
0.0446118
0.0891826
0.00625053
0.00631762
0.00639316
0.00647679
0.00657096
0.0066781
0.00680083
0.00694196
0.00710452
0.007292
0.00750847
0.0077588
0.00804897
0.0083864
0.00878052
0.00924319
0.00978945
0.0104381
0.0112126
0.0121426
0.0132659
0.0146302
0.0162909
0.0182962
0.0206905
0.0236621
0.0281895
0.0368985
0.0430564
0.0813077
0.00608627
0.00614333
0.0062068
0.00627623
0.0063544
0.00644381
0.00654706
0.00666685
0.0068061
0.00696812
0.00715678
0.00737673
0.00763368
0.0079348
0.00828917
0.00870848
0.00920755
0.0098051
0.0105249
0.0113975
0.0124623
0.013771
0.0153861
0.017371
0.0197906
0.0228269
0.0272702
0.0348772
0.0415147
0.07457
0.0059338
0.00597923
0.0060292
0.00608335
0.00614476
0.00621588
0.00629922
0.0063973
0.00651292
0.0066492
0.00680977
0.006999
0.00722231
0.00748647
0.00780021
0.00817476
0.00862449
0.00916784
0.00982842
0.0106372
0.0116352
0.0128774
0.0144329
0.0163783
0.0187956
0.0218579
0.0261811
0.0329311
0.0399037
0.0687715
0.00580392
0.0058359
0.00587096
0.00590901
0.00595322
0.00600589
0.00606932
0.0061459
0.00623826
0.00634933
0.00648253
0.00664193
0.00683254
0.00706079
0.00733486
0.00766537
0.00806608
0.00855465
0.00915418
0.0098955
0.0108206
0.0119865
0.0134676
0.0153508
0.0177319
0.0207738
0.0249433
0.0310226
0.0381554
0.06366
0.00570702
0.00572363
0.00574249
0.00576381
0.00579061
0.00582489
0.00586877
0.0059245
0.00599456
0.00608168
0.00618906
0.00632046
0.00648056
0.00667527
0.00691225
0.00720142
0.00755558
0.00799146
0.00853112
0.00920466
0.0100539
0.0111368
0.0125305
0.0143287
0.0166367
0.0196067
0.0235849
0.0291125
0.0362196
0.0589973
0.00565235
0.00565194
0.00565378
0.005658
0.00566737
0.00568362
0.00570872
0.00574472
0.00579388
0.00585876
0.00594233
0.00604814
0.00618054
0.00634505
0.00654875
0.00680072
0.00711283
0.00750055
0.00798469
0.00859413
0.00936964
0.0103683
0.0116673
0.013363
0.0155648
0.0184115
0.0221515
0.0271796
0.034083
0.0546107
0.00564654
0.00562925
0.0056144
0.00560206
0.00559487
0.0055942
0.0056016
0.00561888
0.00564812
0.00569176
0.00575269
0.00583435
0.00594091
0.0060775
0.00625056
0.00646826
0.00674114
0.00708324
0.00751361
0.00805904
0.00875766
0.00966319
0.010849
0.0124075
0.0144442
0.0170811
0.0204967
0.0250374
0.0316193
0.0505236
0.00568166
0.00565559
0.0056318
0.00560846
0.00558713
0.00556956
0.00555792
0.00555461
0.00556218
0.00558334
0.00562099
0.00567845
0.00575963
0.0058692
0.00601288
0.00619771
0.0064328
0.0067306
0.00710856
0.00759112
0.0082131
0.00902429
0.0100932
0.0115071
0.0133646
0.0157707
0.018829
0.0228353
0.0289341
0.0468344
0.0433667
0.0402233
0.036611
0.0329109
0.0292152
0.0255356
0.0219563
0.0185566
0.0154
0.012535
0.00999188
0.00778281
0.00590635
0.00435314
0.00311155
0.0021726
0.00153323
0.00119826
0.00117862
0.00148857
0.00214132
0.00314284
0.004485
0.00614227
0.00807032
0.0102067
0.0124751
0.0148547
0.0172788
0.0194636
0.0264449
0.0247353
0.0229737
0.0209002
0.0188004
0.0166833
0.0146016
0.0126037
0.0107263
0.00899683
0.00743244
0.00604143
0.00482505
0.00377999
0.00290076
0.00218179
0.001619
0.00121056
0.000957585
0.000863463
0.000932
0.00116533
0.00156197
0.00211329
0.00280212
0.00360018
0.00447238
0.00539812
0.00619844
0.00700551
0.0210328
0.0197197
0.0183778
0.0167206
0.0150545
0.013399
0.0117937
0.0102696
0.00884602
0.0075355
0.00634525
0.00527814
0.00433377
0.00350935
0.00280068
0.00220309
0.00171225
0.0013249
0.0010393
0.000855565
0.000775686
0.000803403
0.000943525
0.00120047
0.001576
0.00206564
0.00265553
0.0033269
0.0039552
0.00457268
0.0175581
0.0165768
0.0155633
0.0142424
0.0129118
0.0115836
0.0102892
0.00905288
0.0078889
0.00680681
0.00581263
0.00490992
0.00410024
0.00338352
0.00275831
0.00222223
0.00177243
0.00140604
0.00112062
0.000914687
0.000788339
0.000743839
0.000785676
0.000919468
0.0011493
0.00147318
0.00187895
0.00234774
0.00275647
0.00314812
0.0147996
0.0140151
0.0132002
0.0121649
0.0111375
0.0101095
0.00909709
0.00811355
0.00716878
0.00627159
0.0054296
0.00464937
0.00393623
0.00329411
0.00272533
0.00223067
0.0018095
0.0014601
0.00118007
0.000966905
0.000818741
0.000735087
0.000717101
0.000766915
0.000885935
0.00107236
0.0013191
0.00161772
0.0018858
0.00214768
0.0125892
0.011959
0.0112944
0.0104825
0.00969078
0.00890005
0.00811229
0.00733251
0.00656623
0.00582073
0.00510431
0.00442554
0.00379257
0.0032125
0.00269078
0.00223087
0.00183425
0.00150051
0.00122785
0.00101361
0.000854953
0.000749502
0.000695491
0.000691466
0.000735682
0.000825598
0.000957565
0.00112975
0.00129507
0.00145974
0.0108794
0.0103708
0.00982438
0.00918016
0.00855876
0.00794001
0.00731744
0.00669088
0.00606221
0.00543667
0.00482199
0.00422737
0.00366239
0.00313605
0.00265587
0.0022273
0.00185347
0.00153525
0.00127167
0.0010604
0.000898325
0.00078195
0.000707541
0.000671141
0.000668772
0.000697024
0.000753692
0.000838963
0.000929728
0.0010244
0.00957613
0.00916059
0.00870563
0.00818438
0.00768406
0.00718628
0.00668211
0.00616797
0.00564319
0.00511096
0.00457782
0.00405257
0.00354517
0.00306554
0.00262239
0.0022225
0.00187023
0.00156754
0.00131427
0.00110857
0.000947306
0.00082638
0.000740942
0.000685688
0.000655491
0.000646417
0.000656237
0.000684994
0.000724012
0.000769574
0.00858797
0.00824065
0.00785288
0.00741982
0.0070054
0.00659294
0.00617361
0.00574172
0.00529508
0.00483519
0.00436719
0.00389901
0.00344035
0.00300129
0.00259115
0.00221748
0.00188549
0.001598
0.00135552
0.00115664
0.00099834
0.000876278
0.000785131
0.00071909
0.000672635
0.000641463
0.000623093
0.000616642
0.000621156
0.000634668
0.00783537
0.00753656
0.00719835
0.00682876
0.00647533
0.00612369
0.00576528
0.00539371
0.00500587
0.004602
0.00418595
0.00376464
0.00334711
0.00294322
0.0025624
0.00221255
0.00189942
0.00162639
0.00139452
0.00120277
0.00104829
0.000926775
0.000832845
0.000760649
0.000704668
0.000660416
0.000625096
0.000597086
0.0005793
0.00057324
0.00725731
0.00699335
0.006692
0.00636803
0.0060586
0.0057507
0.00543649
0.00510941
0.00476588
0.00440532
0.00403056
0.00364757
0.00326463
0.0028911
0.00253616
0.00220776
0.00191188
0.00165229
0.0014304
0.0012455
0.00109498
0.000974725
0.000879534
0.000803754
0.000742043
0.000689849
0.000644141
0.00060284
0.000570874
0.00055319
0.00680922
0.0065712
0.00629778
0.00600773
0.00573008
0.00545375
0.00517171
0.00487752
0.00456732
0.00424008
0.00389795
0.00354615
0.00319214
0.00284464
0.00251236
0.00220306
0.00192274
0.00167534
0.00146254
0.0012839
0.00113709
0.00101825
0.000922508
0.000844503
0.000779123
0.000721882
0.000669495
0.000619986
0.00057903
0.000554606
0.00645988
0.00624144
0.00598968
0.00572526
0.00547098
0.00521784
0.0049592
0.00468915
0.0044038
0.004102
0.00378551
0.00345892
0.00312896
0.00280359
0.00249095
0.00219841
0.00193189
0.00169534
0.00149061
0.00131749
0.00117391
0.00105635
0.000960267
0.000880664
0.000812661
0.000751856
0.000695138
0.000640574
0.000594028
0.000566027
0.00618719
0.00598393
0.00574943
0.00550481
0.0052681
0.00503173
0.00478986
0.00453715
0.00427001
0.00398742
0.00369092
0.0033846
0.00307447
0.00276772
0.00247186
0.00219384
0.00193933
0.00171225
0.00151453
0.00134611
0.00120521
0.00108859
0.000992048
0.000910973
0.000840774
0.000777365
0.000717819
0.000660237
0.000610419
0.000580964
0.00597508
0.00578405
0.0055637
0.00533445
0.00511082
0.00488653
0.00465622
0.0044156
0.00416153
0.00389325
0.00361223
0.00332207
0.00302809
0.00273679
0.00245505
0.00218938
0.00194516
0.00172618
0.00153439
0.00136988
0.00123105
0.00111493
0.00101766
0.000935035
0.000862812
0.000797396
0.000735962
0.000676714
0.000625252
0.00059574
0.00581189
0.00563089
0.00542217
0.00520486
0.00499077
0.00477483
0.00455216
0.00431955
0.00407467
0.00381693
0.00354774
0.00327027
0.00298926
0.00271056
0.0024405
0.00218514
0.00194954
0.00173735
0.00155045
0.00138903
0.00125164
0.00113556
0.00103727
0.000952921
0.000878805
0.000811733
0.000749019
0.000688998
0.000636976
0.000608256
0.00568899
0.00551608
0.00531671
0.00510856
0.00490112
0.00469051
0.00447277
0.00424515
0.00400651
0.00375636
0.00349599
0.00322825
0.0029574
0.00268877
0.00242817
0.00218122
0.00195269
0.001746
0.001563
0.00140387
0.00126731
0.00115083
0.00105123
0.000965076
0.000889139
0.000820637
0.000757042
0.000696804
0.000644876
0.000617283
0.0055996
0.00543307
0.00524102
0.00503962
0.00483662
0.00462915
0.00441426
0.00418953
0.00395478
0.00370979
0.00345568
0.0031951
0.00293197
0.00267115
0.00241799
0.00217773
0.00195479
0.00175241
0.00157232
0.0014147
0.00127837
0.00116109
0.00105999
0.000972029
0.000894327
0.000824561
0.000760325
0.000700177
0.00064867
0.000622143
0.0055383
0.00537665
0.00519029
0.00499372
0.00479342
0.00458752
0.0043739
0.00415058
0.00391776
0.0036758
0.00342574
0.00317008
0.00291248
0.00265744
0.00240992
0.00217473
0.00195602
0.00175678
0.00157864
0.00142178
0.00128512
0.00116667
0.0010639
0.00097412
0.000894801
0.000823916
0.000759157
0.000699261
0.000648318
0.000622576
0.00550055
0.00534269
0.00516083
0.00496779
0.00476893
0.00456341
0.00434978
0.0041267
0.00389412
0.00365331
0.00340531
0.00315254
0.00289851
0.00264743
0.00240387
0.00217228
0.00195648
0.00175927
0.00158215
0.00142531
0.00128779
0.00116785
0.00106326
0.000971672
0.000890844
0.000818845
0.000753802
0.000694273
0.000643951
0.000618638
0.00548265
0.00532795
0.00514977
0.00495947
0.00476138
0.00455536
0.00434068
0.00411667
0.0038829
0.00364151
0.00339375
0.00314204
0.00288978
0.00264095
0.00239978
0.00217037
0.00195625
0.00175998
0.00158296
0.00142541
0.00128652
0.00116476
0.00105823
0.000964853
0.00088267
0.000809807
0.000744588
0.000685518
0.000635857
0.000610574
0.0054814
0.00532983
0.00515499
0.00496698
0.00476942
0.0045623
0.00434573
0.00411961
0.00388345
0.00363984
0.00339065
0.00313828
0.00288609
0.00263789
0.0023976
0.002169
0.00195532
0.00175893
0.00158112
0.00142215
0.00128138
0.00115751
0.00104892
0.000953808
0.000870456
0.000796965
0.000731775
0.000673336
0.000624407
0.000598797
0.00549389
0.00534594
0.00517452
0.0049888
0.00479177
0.00458348
0.00436426
0.00413488
0.00389535
0.00364799
0.00339582
0.00314117
0.00288743
0.00263825
0.00239733
0.00216815
0.00195367
0.00175608
0.0015766
0.00141552
0.00127239
0.00114615
0.00103544
0.000938686
0.000854283
0.000780521
0.000715701
0.00065808
0.000610041
0.000583798
0.00551725
0.00537391
0.00520658
0.00502358
0.00482731
0.00461787
0.00439565
0.00416211
0.00391831
0.00366594
0.00340931
0.00315085
0.00289391
0.00264212
0.00239899
0.00216776
0.00195119
0.00175129
0.00156926
0.00140543
0.00125952
0.00113072
0.00101788
0.000919624
0.000834419
0.000760721
0.000696538
0.000640138
0.00059323
0.00056615
0.00554854
0.00541131
0.00524939
0.00507004
0.00487526
0.00466469
0.00443935
0.00420115
0.00395223
0.00369394
0.00343149
0.00316769
0.00290589
0.00264973
0.00240265
0.00216776
0.00194767
0.00174431
0.00155885
0.0013917
0.00124271
0.00111127
0.000996412
0.000896877
0.000811203
0.000737776
0.00067468
0.000619927
0.000574457
0.000546529
0.00558462
0.00545555
0.00530087
0.00512683
0.00493413
0.00472304