/*--------------------------------*- C++ -*----------------------------------*\
  =========                 |
  \\      /  F ield         | OpenFOAM: The Open Source CFD Toolbox
   \\    /   O peration     | Website:  https://openfoam.org
    \\  /    A nd           | Version:  12
     \\/     M anipulation  |
\*---------------------------------------------------------------------------*/
FoamFile
{
    format      ascii;
    class       volVectorField;
    location    "220";
    object      U;
}
// * * * * * * * * * * * * * * * * * * * * * * * * * * * * * * * * * * * * * //

dimensions      [0 1 -1 0 0 0 0];

internalField   nonuniform List<vector> 
6750
(
(0.200065 -0.0031205 0)
(0.200334 -0.00958836 0)
(0.200601 -0.0155812 0)
(0.200831 -0.0211564 0)
(0.200689 -0.0263966 0)
(0.200037 -0.00347809 0)
(0.200271 -0.0101446 0)
(0.200458 -0.0160521 0)
(0.200516 -0.0213263 0)
(0.200374 -0.0260398 0)
(0.200026 -0.00363721 0)
(0.200122 -0.0103566 0)
(0.200123 -0.0161209 0)
(0.19998 -0.0210915 0)
(0.19971 -0.0253518 0)
(0.20001 -0.00366795 0)
(0.199953 -0.010292 0)
(0.199761 -0.0158481 0)
(0.199437 -0.0205366 0)
(0.199037 -0.0244787 0)
(0.199996 -0.00359771 0)
(0.199798 -0.00999841 0)
(0.199422 -0.0152919 0)
(0.198921 -0.019707 0)
(0.198376 -0.023392 0)
(0.199984 -0.00344419 0)
(0.199656 -0.00951102 0)
(0.199104 -0.0144862 0)
(0.198422 -0.0186122 0)
(0.197713 -0.0220478 0)
(0.199974 -0.0032219 0)
(0.199524 -0.00885735 0)
(0.198799 -0.0134561 0)
(0.197931 -0.0172608 0)
(0.197044 -0.0204292 0)
(0.199965 -0.00294188 0)
(0.199398 -0.00806018 0)
(0.198505 -0.012225 0)
(0.197451 -0.0156689 0)
(0.196378 -0.0185406 0)
(0.199956 -0.00261372 0)
(0.199281 -0.00714195 0)
(0.198227 -0.0108208 0)
(0.196995 -0.013864 0)
(0.195739 -0.0164064 0)
(0.199949 -0.00224714 0)
(0.199175 -0.00612721 0)
(0.197976 -0.00927695 0)
(0.196579 -0.0118847 0)
(0.195152 -0.0140677 0)
(0.199943 -0.00185247 0)
(0.199084 -0.00504266 0)
(0.197758 -0.00763189 0)
(0.196219 -0.00977757 0)
(0.194641 -0.011577 0)
(0.199938 -0.00144034 0)
(0.199011 -0.00391592 0)
(0.197583 -0.00592607 0)
(0.195927 -0.00759307 0)
(0.194226 -0.00899306 0)
(0.199935 -0.00102105 0)
(0.198957 -0.00277386 0)
(0.197453 -0.00419918 0)
(0.195712 -0.00538111 0)
(0.193918 -0.00637454 0)
(0.199931 -0.000603807 0)
(0.198926 -0.00164119 0)
(0.197371 -0.00248725 0)
(0.195574 -0.00318728 0)
(0.19372 -0.00377582 0)
(0.199921 -0.000200342 0)
(0.198921 -0.000537423 0)
(0.197334 -0.000818882 0)
(0.19551 -0.00104961 0)
(0.193626 -0.00124338 0)
(0.199921 0.000200501 0)
(0.198921 0.000537947 0)
(0.197334 0.000819769 0)
(0.19551 0.00105083 0)
(0.193626 0.0012449 0)
(0.199931 0.000603965 0)
(0.198926 0.00164172 0)
(0.197371 0.00248813 0)
(0.195574 0.0031885 0)
(0.19372 0.00377734 0)
(0.199935 0.00102121 0)
(0.198957 0.00277439 0)
(0.197453 0.00420006 0)
(0.195712 0.00538233 0)
(0.193918 0.00637606 0)
(0.199938 0.0014405 0)
(0.199011 0.00391645 0)
(0.197583 0.00592695 0)
(0.195927 0.00759428 0)
(0.194226 0.00899457 0)
(0.199943 0.00185263 0)
(0.199084 0.00504318 0)
(0.197758 0.00763277 0)
(0.196219 0.00977878 0)
(0.194641 0.0115786 0)
(0.199949 0.0022473 0)
(0.199175 0.00612773 0)
(0.197976 0.00927783 0)
(0.196579 0.0118859 0)
(0.195152 0.0140692 0)
(0.199956 0.00261387 0)
(0.199281 0.00714247 0)
(0.198227 0.0108217 0)
(0.196995 0.0138652 0)
(0.195739 0.0164079 0)
(0.199965 0.00294204 0)
(0.199398 0.0080607 0)
(0.198505 0.0122259 0)
(0.197451 0.0156701 0)
(0.196378 0.0185421 0)
(0.199974 0.00322206 0)
(0.199524 0.00885787 0)
(0.198799 0.013457 0)
(0.197931 0.017262 0)
(0.197044 0.0204307 0)
(0.199984 0.00344435 0)
(0.199656 0.00951155 0)
(0.199104 0.0144871 0)
(0.198422 0.0186134 0)
(0.197713 0.0220493 0)
(0.199996 0.00359787 0)
(0.199798 0.00999895 0)
(0.199422 0.0152928 0)
(0.19892 0.0197083 0)
(0.198376 0.0233936 0)
(0.20001 0.00366811 0)
(0.199953 0.0102925 0)
(0.199761 0.0158491 0)
(0.199437 0.0205378 0)
(0.199037 0.0244803 0)
(0.200026 0.00363737 0)
(0.200122 0.0103571 0)
(0.200123 0.0161218 0)
(0.19998 0.0210929 0)
(0.19971 0.0253534 0)
(0.200037 0.00347825 0)
(0.200271 0.0101451 0)
(0.200458 0.016053 0)
(0.200516 0.0213276 0)
(0.200373 0.0260415 0)
(0.200065 0.00312066 0)
(0.200334 0.00958892 0)
(0.200601 0.0155822 0)
(0.200831 0.0211578 0)
(0.200689 0.0263984 0)
(0.19851 -0.0381705 0)
(0.196771 -0.0437658 0)
(0.19529 -0.0488907 0)
(0.194258 -0.0534918 2.81108e-22)
(0.19353 -0.0574576 0)
(0.193047 -0.0607269 0)
(0.192799 -0.0632335 -1.92452e-20)
(0.192771 -0.0648819 1.9415e-20)
(0.192943 -0.065555 1.57636e-22)
(0.193246 -0.065198 1.0094e-20)
(0.193649 -0.0636832 1.92063e-23)
(0.194077 -0.0608573 -1.26082e-23)
(0.194447 -0.0567903 -5.19781e-21)
(0.194678 -0.0515516 -5.15819e-21)
(0.194695 -0.0452845 -1.20439e-20)
(0.194443 -0.0381992 1.20482e-20)
(0.193892 -0.030555 -4.8349e-21)
(0.193043 -0.0226329 -4.4866e-21)
(0.191923 -0.014714 3.11723e-22)
(0.190583 -0.00705395 3.53851e-22)
(0.189074 0.000136939 8.6153e-21)
(0.187472 0.00674408 -1.26937e-22)
(0.18586 0.0126437 1.47421e-20)
(0.184298 0.017779 -1.46117e-20)
(0.182836 0.0221392 0)
(0.181516 0.0257453 0)
(0.180368 0.0286384 -1.85487e-22)
(0.179415 0.0308713 0)
(0.17868 0.0324989 0)
(0.178153 0.033547 0)
(0.197622 -0.0415319 0)
(0.196045 -0.0470371 0)
(0.194851 -0.0517291 0)
(0.194008 -0.0558194 -2.65687e-22)
(0.193399 -0.0592943 0)
(0.19301 -0.0621136 0)
(0.19284 -0.064206 1.91646e-20)
(0.192874 -0.0654745 -1.96254e-20)
(0.193089 -0.0658104 -1.48371e-22)
(0.193415 -0.0651815 0)
(0.193824 -0.0634229 0)
(0.194231 -0.0604524 -9.54445e-21)
(0.194568 -0.0563333 9.57451e-21)
(0.194757 -0.0511364 0)
(0.194731 -0.0449985 -3.21235e-20)
(0.194441 -0.0381133 3.21238e-20)
(0.193864 -0.0307154 0)
(0.193003 -0.0230599 8.68798e-21)
(0.191884 -0.0153986 -8.73213e-21)
(0.190554 -0.00796219 0)
(0.189072 -0.000940973 0)
(0.187499 0.00554432 1.19084e-22)
(0.185903 0.0113843 -1.41551e-20)
(0.184348 0.0165212 1.42619e-20)
(0.182882 0.0209365 0)
(0.181543 0.0246418 0)
(0.18036 0.0276695 1.7467e-22)
(0.179355 0.030065 0)
(0.178552 0.0318868 0)
(0.177959 0.0332109 0)
(0.196785 -0.0441211 0)
(0.195527 -0.0491158 0)
(0.194514 -0.0533893 0)
(0.193763 -0.0571459 1.95595e-20)
(0.193228 -0.0603386 -1.97765e-20)
(0.192911 -0.0629039 2.06472e-20)
(0.192807 -0.0647587 -2.08413e-20)
(0.192899 -0.0658052 3.21111e-22)
(0.193159 -0.0659432 0)
(0.193515 -0.0651474 0)
(0.19394 -0.0632316 -3.20534e-22)
(0.194341 -0.0601664 0)
(0.194657 -0.0560031 0)
(0.194807 -0.050815 -7.58746e-23)
(0.194729 -0.0447368 -5.28773e-20)
(0.194379 -0.0379551 5.28776e-20)
(0.193737 -0.0306928 7.0203e-23)
(0.192812 -0.0231902 0)
(0.191632 -0.0156835 0)
(0.190248 -0.00838713 2.54273e-22)
(0.188718 -0.00147851 0)
(0.187106 0.00490657 0)
(0.185477 0.0106819 -2.35846e-22)
(0.183889 0.0157908 -1.37409e-20)
(0.182391 0.0202121 1.3613e-20)
(0.181019 0.023953 -1.26222e-20)
(0.179798 0.0270402 1.24649e-20)
(0.178745 0.0295117 0)
(0.177891 0.0314256 0)
(0.177314 0.0329264 0)
(0.196046 -0.0464478 0)
(0.195012 -0.0510229 -4.23492e-20)
(0.194102 -0.0549619 2.13533e-20)
(0.193421 -0.0584261 4.43805e-20)
(0.192956 -0.0613501 -4.49178e-20)
(0.192707 -0.0636624 2.23426e-20)
(0.192666 -0.0652776 0)
(0.192816 -0.0661 7.01495e-22)
(0.193111 -0.0660471 0)
(0.193507 -0.0650741 0)
(0.193947 -0.0630058 1.13719e-20)
(0.194349 -0.0598486 -1.0747e-20)
(0.194645 -0.0556421 0)
(0.194756 -0.0504632 7.96584e-23)
(0.194619 -0.0444447 -7.3219e-20)
(0.194193 -0.0377662 7.32194e-20)
(0.193463 -0.0306398 -7.37039e-23)
(0.192442 -0.023292 0)
(0.191164 -0.0159444 -8.49049e-21)
(0.189683 -0.00879766 7.93169e-21)
(0.188061 -0.0020184 2.42671e-22)
(0.186366 0.0042663 0)
(0.184662 0.00997105 -4.44315e-22)
(0.183008 0.0150434 0)
(0.18145 0.019462 1.29808e-20)
(0.180024 0.0232314 -2.47343e-20)
(0.178753 0.0263738 2.33756e-20)
(0.177648 0.0289201 1.04868e-20)
(0.176742 0.0309243 -2.16559e-20)
(0.1762 0.0326018 0)
(0.195288 -0.0486639 0)
(0.194389 -0.0528747 4.7532e-20)
(0.193561 -0.0565016 -4.67082e-20)
(0.192952 -0.0596775 0)
(0.192556 -0.0623326 0)
(0.192372 -0.0643915 7.60529e-22)
(0.192388 -0.0657673 0)
(0.192591 -0.0663656 -7.35e-22)
(0.192925 -0.0661255 1.16044e-20)
(0.193356 -0.0649668 -1.17639e-20)
(0.193809 -0.0627502 -1.16219e-20)
(0.194209 -0.0594965 1.13207e-20)
(0.194481 -0.0552415 3.37876e-22)
(0.194545 -0.0500652 -1.63098e-22)
(0.194341 -0.0440987 -9.31688e-20)
(0.193829 -0.037516 9.31692e-20)
(0.192998 -0.0305195 1.44324e-22)
(0.191863 -0.0233233 -2.76198e-22)
(0.190465 -0.0161356 8.48577e-21)
(0.188863 -0.00914378 -8.17934e-21)
(0.187124 -0.00250353 -8.03883e-21)
(0.185317 0.00366681 7.729e-21)
(0.183511 0.00928585 4.65641e-22)
(0.181764 0.0143047 0)
(0.180124 0.0187029 -4.01466e-22)
(0.178625 0.0224836 0)
(0.177289 0.0256657 0)
(0.176124 0.0282744 -2.22275e-20)
(0.175158 0.0303575 2.12579e-20)
(0.174644 0.0322027 0)
(0.194434 -0.0507708 4.89226e-20)
(0.193619 -0.0546334 -7.69069e-20)
(0.192868 -0.0579608 2.53391e-20)
(0.192328 -0.0608597 0)
(0.191998 -0.0632559 2.56239e-20)
(0.191874 -0.0650699 -2.50932e-20)
(0.191946 -0.066214 2.46818e-20)
(0.192198 -0.0665964 -2.55738e-20)
(0.192567 -0.0661717 0)
(0.193026 -0.0648258 -7.73089e-22)
(0.193487 -0.0624644 1.18419e-20)
(0.193879 -0.0591103 -6.16173e-21)
(0.194121 -0.0548 -9.28846e-22)
(0.194132 -0.0496162 -5.38387e-21)
(0.193854 -0.0436896 -1.12754e-19)
(0.193248 -0.0371893 1.12751e-19)
(0.192306 -0.0303101 -4.81375e-21)
(0.191049 -0.0232554 7.7006e-22)
(0.189522 -0.0162214 -4.0561e-21)
(0.187786 -0.00938345 8.44444e-21)
(0.185915 -0.00288663 4.79256e-22)
(0.183982 0.00315895 0)
(0.182057 0.0086777 -1.41062e-20)
(0.1802 0.0136248 1.43852e-20)
(0.178459 0.0179819 -1.32473e-20)
(0.17687 0.0217519 1.27211e-20)
(0.175456 0.0249516 7.24971e-22)
(0.174219 0.0276016 1.11812e-20)
(0.173185 0.0297435 -3.26426e-20)
(0.172681 0.0317317 2.30413e-20)
(0.193439 -0.052752 -2.5621e-20)
(0.192678 -0.0562804 2.89401e-20)
(0.191995 -0.0593263 2.8983e-20)
(0.191522 -0.0619638 -2.93888e-20)
(0.191253 -0.0641131 2.7471e-20)
(0.191185 -0.0656916 -2.95214e-20)
(0.191309 -0.0666121 -8.8309e-22)
(0.191606 -0.0667876 0)
(0.192007 -0.066178 1.30536e-20)
(0.192486 -0.0646456 3.71617e-22)
(0.192949 -0.0621416 3.20985e-22)
(0.193326 -0.0586835 -1.28781e-20)
(0.193529 -0.0543109 -5.38184e-21)
(0.193482 -0.0491098 8.51425e-21)
(0.193123 -0.0432106 -1.34446e-19)
(0.192419 -0.0367793 1.2921e-19)
(0.191363 -0.030004 7.19589e-21)
(0.18998 -0.0230792 -5.27411e-21)
(0.188319 -0.0161907 -8.48109e-21)
(0.186447 -0.00950304 -1.20003e-22)
(0.184439 -0.00315136 -1.62004e-22)
(0.182372 0.0027624 7.60036e-21)
(0.180319 0.00816899 0)
(0.178341 0.0130282 3.83801e-22)
(0.176489 0.0173245 -1.18942e-20)
(0.174799 0.0210617 1.25689e-20)
(0.173293 0.0242557 -1.16509e-20)
(0.171974 0.026924 1.07613e-20)
(0.170863 0.0291026 1.0648e-20)
(0.170345 0.0312024 -1.20658e-20)
(0.192265 -0.0546032 0)
(0.191537 -0.0578161 2.72006e-20)
(0.190917 -0.0606003 -3.31272e-20)
(0.190505 -0.062991 3.1207e-20)
(0.190293 -0.064904 -2.97995e-20)
(0.190279 -0.0662551 2.73556e-20)
(0.190452 -0.0669585 -2.77041e-20)
(0.190782 -0.0669356 -1.80717e-21)
(0.191215 -0.0661339 -8.84496e-22)
(0.191706 -0.0644186 -8.62634e-22)
(0.192165 -0.0617725 -8.31389e-22)
(0.192517 -0.0582065 4.00797e-22)
(0.192676 -0.0537651 -6.34508e-21)
(0.192563 -0.0485375 3.1494e-21)
(0.192119 -0.0426549 -1.4736e-19)
(0.191314 -0.0362805 1.52723e-19)
(0.190144 -0.0295972 2.2391e-21)
(0.188637 -0.0227917 -4.17323e-21)
(0.186844 -0.0160406 2.6491e-22)
(0.184836 -0.0094988 1.02356e-21)
(0.182692 -0.00329226 4.69559e-22)
(0.180491 0.00248506 4.44067e-22)
(0.178307 0.00777032 8.42818e-22)
(0.176205 0.0125282 -1.39263e-20)
(0.174236 0.0167465 1.36802e-20)
(0.172437 0.0204307 -1.19719e-20)
(0.170831 0.0235969 1.10562e-20)
(0.16942 0.0262609 -9.66191e-21)
(0.168223 0.0284544 1.1565e-20)
(0.167671 0.0306326 0)
(0.190876 -0.0563258 0)
(0.190169 -0.0592429 1.97532e-21)
(0.189607 -0.0617835 -2.73801e-20)
(0.189251 -0.0639403 4.15418e-22)
(0.189093 -0.065626 3.18664e-20)
(0.189129 -0.0667562 1.94726e-21)
(0.189348 -0.0672456 1.94778e-21)
(0.189703 -0.0670311 -1.30286e-20)
(0.190163 -0.066031 1.60993e-20)
(0.190657 -0.0641385 -4.95976e-24)
(0.191105 -0.0613474 -6.81847e-21)
(0.191426 -0.0576691 6.85943e-21)
(0.191533 -0.0531529 -2.69021e-21)
(0.191349 -0.0478912 3.09896e-21)
(0.190818 -0.0420158 -1.68116e-19)
(0.189911 -0.0356883 1.68116e-19)
(0.188628 -0.0290868 2.40368e-21)
(0.186999 -0.0223912 -2.69235e-21)
(0.18508 -0.0157699 3.93532e-21)
(0.182942 -0.00936921 -5.20345e-21)
(0.180667 -0.00330652 -2.92484e-23)
(0.178336 0.00233175 7.02e-21)
(0.176025 0.00748904 -7.86069e-21)
(0.1738 0.012135 -7.81205e-22)
(0.171713 0.0162609 -8.01073e-22)
(0.169802 0.0198747 1.16886e-20)
(0.168092 0.022993 -3.29898e-22)
(0.166583 0.0256312 -1.23656e-20)
(0.165294 0.0278188 0)
(0.164687 0.0300423 0)
(0.18924 -0.0579221 0)
(0.188545 -0.0605622 -3.52669e-20)
(0.188036 -0.0628744 4.09943e-22)
(0.187734 -0.064808 5.22158e-22)
(0.187626 -0.0662737 6.52124e-20)
(0.187708 -0.0671884 -3.38256e-20)
(0.187967 -0.0674689 -2.03556e-21)
(0.188346 -0.0670622 0)
(0.188823 -0.065861 1.44332e-20)
(0.189314 -0.0637933 -1.4637e-20)
(0.189744 -0.060855 7.12848e-21)
(0.190026 -0.0570608 -3.99124e-22)
(0.190076 -0.0524647 -6.80709e-21)
(0.189817 -0.0471626 1.92391e-22)
(0.189197 -0.0412873 -1.85376e-19)
(0.188189 -0.0349986 1.85459e-19)
(0.186796 -0.0284705 -1.53895e-22)
(0.185051 -0.0218769 -4.49875e-21)
(0.183012 -0.0153788 2.93456e-22)
(0.180752 -0.00911449 5.16211e-21)
(0.178354 -0.00319357 -7.7931e-21)
(0.175902 0.0023046 7.21028e-21)
(0.173471 0.00732948 0)
(0.171128 0.0118555 8.16492e-22)
(0.168926 0.0158776 -1.18101e-20)
(0.166905 0.0194063 2.3638e-20)
(0.165089 0.0224594 -3.0659e-22)
(0.16348 0.0250527 5.53784e-22)
(0.162095 0.0272151 -1.03416e-20)
(0.161416 0.0294528 0)
(0.187322 -0.059394 -4.54297e-21)
(0.186637 -0.0617737 0)
(0.186179 -0.06387 -2.21782e-21)
(0.185927 -0.0655891 3.33396e-20)
(0.185867 -0.0668407 -3.62398e-20)
(0.185991 -0.0675438 3.50376e-20)
(0.186282 -0.0676203 -3.53367e-20)
(0.186686 -0.0670156 -1.66875e-20)
(0.187171 -0.0656129 3.52882e-20)
(0.187652 -0.063371 2.09908e-22)
(0.188056 -0.0602837 -1.47866e-20)
(0.188294 -0.0563706 7.04071e-21)
(0.188281 -0.0516909 -3.77095e-21)
(0.187945 -0.0463439 -5.05993e-21)
(0.187236 -0.0404633 -2.00424e-19)
(0.186128 -0.0342075 2.03194e-19)
(0.184629 -0.0277467 -3.59343e-21)
(0.182775 -0.0212491 -2.06041e-21)
(0.180624 -0.0148687 4.46524e-21)
(0.178252 -0.00873657 -8.65398e-21)
(0.175742 -0.00295503 3.21982e-23)
(0.173178 0.00240311 1.28675e-20)
(0.170636 0.00729292 -6.59001e-21)
(0.168184 0.0116935 -1.18792e-20)
(0.165874 0.0156032 1.17147e-20)
(0.163747 0.0190352 -1.08895e-20)
(0.161827 0.0220088 1.12764e-20)
(0.160118 0.0245406 -5.97636e-22)
(0.158638 0.0266606 0)
(0.157876 0.0288842 1.42607e-21)
(0.185092 -0.0607426 4.72472e-21)
(0.184414 -0.0628761 -4.00589e-20)
(0.184006 -0.0647659 3.83981e-20)
(0.183803 -0.066277 2.36531e-21)
(0.183789 -0.0673185 2.35626e-21)
(0.183955 -0.0678115 0)
(0.184266 -0.0676887 -2.30606e-21)
(0.184693 -0.0668779 -1.9885e-20)
(0.185179 -0.065276 3.38758e-20)
(0.185647 -0.0628592 -1.82982e-20)
(0.186018 -0.0596212 -1.0018e-21)
(0.186206 -0.0555872 7.30816e-21)
(0.186127 -0.0508217 -7.34743e-21)
(0.185712 -0.0454271 -2.03973e-22)
(0.184912 -0.0395382 -2.17493e-19)
(0.183709 -0.0333118 2.17406e-19)
(0.18211 -0.0269144 1.56089e-22)
(0.180154 -0.0205085 -4.46137e-21)
(0.177902 -0.014242 4.43758e-21)
(0.175428 -0.00823858 5.01453e-22)
(0.172818 -0.00259415 -6.43731e-21)
(0.170154 0.00262464 1.36616e-20)
(0.167513 0.00737809 -5.59737e-21)
(0.164961 0.0116495 6.82976e-22)
(0.162551 0.0154408 0)
(0.160326 0.0187674 -6.80847e-22)
(0.158308 0.02165 -6.50665e-22)
(0.156502 0.0241068 9.62021e-21)
(0.154929 0.0261698 -8.81375e-21)
(0.154075 0.028355 -1.48311e-21)
(0.182515 -0.0619671 0)
(0.181847 -0.0638654 -5.62037e-23)
(0.181488 -0.0655554 4.01822e-20)
(0.181334 -0.0668627 -4.09609e-20)
(0.181363 -0.0676967 -3.97501e-20)
(0.181565 -0.0679807 6.20673e-20)
(0.1819 -0.0676583 -1.73093e-20)
(0.182342 -0.0666356 -2.23739e-23)
(0.182823 -0.064837 -2.30664e-21)
(0.183271 -0.0622442 0)
(0.183605 -0.0588543 -8.08402e-21)
(0.183739 -0.0546988 1.57204e-20)
(0.183591 -0.0498471 -7.61868e-21)
(0.183095 -0.0444046 2.13436e-22)
(0.182208 -0.0385066 -2.32082e-19)
(0.180912 -0.0323085 2.3217e-19)
(0.17922 -0.0259726 -1.6333e-22)
(0.177171 -0.0196565 -4.41545e-21)
(0.174827 -0.0135014 8.386e-21)
(0.172264 -0.00762456 -3.96569e-21)
(0.169566 -0.00211544 0)
(0.166815 0.00296491 7.47383e-22)
(0.164087 0.0075816 -7.65772e-23)
(0.161447 0.0117219 -5.99293e-21)
(0.15895 0.0153905 1.45821e-20)
(0.156635 0.0186054 -9.8112e-21)
(0.154526 0.0213887 -9.04761e-21)
(0.152629 0.0237599 9.45573e-21)
(0.150966 0.0257538 -6.51824e-23)
(0.150019 0.0278806 0)
(0.179557 -0.0630643 0)
(0.178903 -0.0647353 -3.97268e-20)
(0.178593 -0.0662291 4.32705e-20)
(0.178488 -0.067335 3.96887e-20)
(0.17856 -0.0679625 -4.32138e-20)
(0.178795 -0.0680395 -2.31439e-20)
(0.179152 -0.0675118 8.25784e-22)
(0.179604 -0.0662741 2.29667e-20)
(0.180077 -0.06428 4.82734e-21)
(0.180501 -0.0615108 0)
(0.180792 -0.0579694 0)
(0.180867 -0.0536934 -6.82455e-21)
(0.180648 -0.0487569 8.35801e-21)
(0.180072 -0.0432682 0)
(0.1791 -0.0373629 -2.45463e-19)
(0.177716 -0.0311944 2.4546e-19)
(0.175938 -0.024921 0)
(0.173806 -0.0186947 4.06791e-21)
(0.171382 -0.0126505 -4.8119e-21)
(0.168743 -0.00689923 0)
(0.16597 -0.0015244 0)
(0.163146 0.00341828 -1.47768e-21)
(0.160344 0.00789828 4.51144e-21)
(0.15763 0.0119064 -3.02886e-22)
(0.155055 0.0154501 -4.1482e-21)
(0.152661 0.0185492 -8.59699e-21)
(0.150471 0.0212271 8.91088e-21)
(0.14849 0.0235048 8.04009e-21)
(0.146744 0.0254202 -8.40694e-21)
(0.145703 0.0274727 0)
(0.176181 -0.0640287 0)
(0.175547 -0.0654742 0)
(0.17529 -0.0667748 0)
(0.175234 -0.0676802 -4.19779e-20)
(0.17535 -0.0681002 2.05372e-20)
(0.175612 -0.0679725 2.5098e-20)
(0.175994 -0.067229 2.72101e-21)
(0.17645 -0.0657778 2.05059e-20)
(0.176911 -0.0635884 -1.14577e-21)
(0.177306 -0.0606432 -1.98784e-20)
(0.177551 -0.0569519 -1.13281e-21)
(0.177566 -0.0525582 -2.11393e-21)
(0.177275 -0.0475407 -4.69341e-21)
(0.17662 -0.04201 3.5154e-21)
(0.175565 -0.0361017 -2.57321e-19)
(0.1741 -0.0299667 2.57329e-19)
(0.172244 -0.0237591 2.56078e-21)
(0.170038 -0.017625 -1.83318e-21)
(0.167546 -0.0116931 9.89351e-22)
(0.164843 -0.006068 4.14685e-22)
(0.16201 -0.000827427 -5.85553e-21)
(0.159127 0.00397787 6.40075e-22)
(0.156266 0.0083214 5.16008e-21)
(0.15349 0.012197 -5.10269e-22)
(0.150852 0.0156146 3.54839e-21)
(0.14839 0.0185956 4.02166e-21)
(0.146128 0.0211642 -7.87352e-21)
(0.144073 0.0233431 0)
(0.142252 0.025173 0)
(0.14112 0.0271394 0)
(0.172348 -0.0648478 -4.76599e-20)
(0.171742 -0.0660695 5.02218e-20)
(0.171539 -0.0671776 0)
(0.171536 -0.0678818 -2.36224e-20)
(0.171696 -0.0680924 2.68693e-20)
(0.171988 -0.067757 2.27339e-20)
(0.172391 -0.0667906 -2.89846e-20)
(0.172848 -0.0651281 0)
(0.173294 -0.0627433 -2.64081e-21)
(0.173656 -0.0596238 0)
(0.173853 -0.055786 3.40024e-24)
(0.173804 -0.0512796 9.09642e-24)
(0.173441 -0.0461873 1.00187e-21)
(0.17271 -0.0406216 4.53584e-22)
(0.171577 -0.0347174 -2.67797e-19)
(0.170037 -0.0286227 2.67782e-19)
(0.168112 -0.0224867 -3.15113e-22)
(0.165844 -0.0164496 -5.48291e-22)
(0.163296 -0.0106335 -4.23293e-23)
(0.160544 -0.00513696 -4.51336e-23)
(0.157665 -3.1875e-05 0)
(0.154737 0.00463559 6.64208e-22)
(0.151831 0.00884263 0)
(0.149008 0.0125858 -2.74761e-21)
(0.146319 0.015877 3.74077e-21)
(0.143802 0.0187387 2.68019e-21)
(0.14148 0.0211961 -3.06352e-21)
(0.13936 0.0232728 0)
(0.137472 0.0250126 6.85423e-21)
(0.136255 0.0268845 -7.2262e-21)
(0.168015 -0.0655054 0)
(0.167446 -0.0665043 7.01887e-23)
(0.167303 -0.0674189 5.32864e-20)
(0.167357 -0.0679189 -5.09668e-20)
(0.167559 -0.0679189 3.12164e-21)
(0.167885 -0.0673672 -6.1154e-21)
(0.168306 -0.0661749 2.97738e-21)
(0.168762 -0.0643024 0)
(0.169191 -0.0617237 0)
(0.169517 -0.0584333 0)
(0.169662 -0.0544547 1.2249e-21)
(0.169551 -0.0498431 -7.46421e-21)
(0.169116 -0.0446851 1.20377e-20)
(0.16831 -0.0390942 -5.88944e-21)
(0.167105 -0.0332043 -2.74328e-19)
(0.165499 -0.0271596 2.77394e-19)
(0.163514 -0.021104 -3.48282e-21)
(0.161195 -0.0151712 6.5058e-21)
(0.158605 -0.00947692 -4.37843e-21)
(0.155817 -0.00411306 -4.02722e-22)
(0.152907 0.000853802 -2.91228e-22)
(0.14995 0.00538197 0)
(0.147014 0.00945196 0)
(0.144159 0.0130627 -4.45049e-22)
(0.141433 0.0162276 6.81061e-22)
(0.138874 0.01897 -2.48772e-22)
(0.136503 0.0213154 -4.34862e-21)
(0.134329 0.0232885 4.04734e-21)
(0.132384 0.0249354 1.02716e-22)
(0.131088 0.0267075 0)
(0.163136 -0.0659788 -5.25591e-20)
(0.162612 -0.0667587 4.87295e-20)
(0.162536 -0.0674748 2.30481e-20)
(0.162651 -0.067765 -2.68159e-20)
(0.162898 -0.0675532 -2.87538e-20)
(0.16326 -0.0667732 2.9482e-20)
(0.163697 -0.0653575 2.4447e-20)
(0.164153 -0.0632755 -2.18638e-20)
(0.164561 -0.0605057 1.25854e-20)
(0.164849 -0.05705 -1.13019e-20)
(0.164941 -0.0529389 1.09307e-20)
(0.164765 -0.0482328 -5.35379e-21)
(0.164262 -0.0430213 -3.92479e-21)
(0.163385 -0.0374186 2.3104e-22)
(0.162114 -0.0315565 -2.81978e-19)
(0.160449 -0.0255748 2.81956e-19)
(0.158415 -0.0196114 -1.45342e-22)
(0.156059 -0.0137934 -2.0937e-21)
(0.153441 -0.00822918 -1.2076e-21)
(0.150632 -0.00300443 3.016e-21)
(0.147706 0.00181972 -1.69305e-21)
(0.144736 0.00620581 1.77771e-21)
(0.141786 0.0101374 -2.86837e-21)
(0.138913 0.0136153 2.53267e-21)
(0.136165 0.0166542 1.4573e-21)
(0.133577 0.0192778 -1.45627e-21)
(0.13117 0.0215116 -1.29234e-21)
(0.128952 0.0233807 1.46725e-21)
(0.126959 0.0249337 4.50136e-21)
(0.125594 0.0266034 -4.30719e-21)
(0.157658 -0.0662408 -3.45459e-21)
(0.157186 -0.0668053 -5.47362e-20)
(0.157186 -0.0673148 6.02115e-20)
(0.157367 -0.0673901 0)
(0.157665 -0.0669585 -3.46179e-21)
(0.158064 -0.0659443 0)
(0.158517 -0.0643068 -3.31131e-21)
(0.15897 -0.0620176 2.449e-20)
(0.159356 -0.0590619 -2.63931e-20)
(0.159604 -0.0554496 1.41305e-21)
(0.159641 -0.0512174 -2.615e-21)
(0.159403 -0.046431 -1.18683e-21)
(0.158831 -0.0411821 -5.40657e-22)
(0.157889 -0.0355848 -2.39813e-22)
(0.156559 -0.0297678 -2.84956e-19)
(0.154845 -0.0238659 2.84947e-19)
(0.152774 -0.0180103 1.50861e-22)
(0.150394 -0.0123204 2.49343e-22)
(0.147763 -0.00689756 -3.4662e-22)
(0.14495 -0.00182082 0)
(0.142025 0.00285405 -1.87368e-22)
(0.139058 0.00709363 -2.06085e-21)
(0.136111 0.0108842 2.35536e-21)
(0.133236 0.0142283 8.48928e-23)
(0.13048 0.0171412 0)
(0.127877 0.0196467 -6.66362e-24)
(0.125446 0.0217698 0)
(0.123196 0.023536 7.25304e-22)
(0.121166 0.0249952 -6.55853e-22)
(0.119739 0.026562 1.70653e-22)
(0.151515 -0.0662584 -5.43991e-20)
(0.15111 -0.066604 5.71502e-20)
(0.151194 -0.0668985 9.66654e-23)
(0.151444 -0.0667555 3.21688e-20)
(0.151802 -0.0660905 -5.40692e-20)
(0.152238 -0.0648433 3.25532e-20)
(0.152708 -0.0629858 3.40858e-21)
(0.153157 -0.0604937 3.81656e-23)
(0.153518 -0.0573604 0)
(0.153724 -0.0536034 -1.45926e-21)
(0.153707 -0.0492659 -7.5208e-21)
(0.153406 -0.0444176 1.15594e-20)
(0.15277 -0.039152 5.37824e-22)
(0.151768 -0.0335819 -1.52632e-21)
(0.150387 -0.027832 -2.82804e-19)
(0.148635 -0.0220309 2.85805e-19)
(0.146541 -0.0163025 -1.35643e-21)
(0.144151 -0.010758 -2.00488e-22)
(0.141523 -0.00549121 2.62872e-21)
(0.138723 -0.000574339 -2.24419e-21)
(0.135818 0.00394218 1.93495e-22)
(0.132872 0.00802882 0)
(0.129944 0.0116743 1.63359e-22)
(0.127085 0.0148825 -8.73858e-23)
(0.124337 0.0176688 -3.73938e-22)
(0.121732 0.0200567 1.27318e-21)
(0.11929 0.0220704 -5.59136e-22)
(0.117021 0.0237352 1.57778e-22)
(0.114964 0.0251019 1.77961e-22)
(0.113485 0.0265669 -3.54866e-22)
(0.144632 -0.0659836 0)
(0.144311 -0.0661045 0)
(0.144487 -0.0661757 -3.38182e-20)
(0.144816 -0.0658065 2.73307e-20)
(0.145238 -0.0649012 0)
(0.145713 -0.0634234 -3.66168e-21)
(0.1462 -0.0613491 -3.61039e-21)
(0.146642 -0.0586615 -3.40391e-21)
(0.146977 -0.0553628 0)
(0.14714 -0.0514777 0)
(0.147067 -0.0470556 -1.38415e-21)
(0.146705 -0.0421694 5.2802e-21)
(0.146009 -0.0369134 -5.80317e-21)
(0.144954 -0.0313978 -2.40829e-22)
(0.143531 -0.0257424 -2.80354e-19)
(0.141753 -0.0200685 2.80419e-19)
(0.13965 -0.0144915 1.34565e-22)
(0.137268 -0.00911427 -9.25376e-22)
(0.134662 -0.00402212 1.29267e-21)
(0.131894 0.000719482 0)
(0.129027 0.00506553 0)
(0.126121 0.00899022 0)
(0.123232 0.0124845 0)
(0.120405 0.015553 -2.57672e-22)
(0.117682 0.0182112 -1.32551e-22)
(0.115092 0.0204815 0)
(0.112653 0.0223871 -2.56379e-21)
(0.110377 0.0239524 2.082e-21)
(0.108303 0.0252286 0)
(0.106781 0.026594 0)
(0.13692 -0.065352 -3.984e-21)
(0.136699 -0.0652404 0)
(0.136978 -0.0650839 0)
(0.137398 -0.0644742 0)
(0.137885 -0.0633293 0)
(0.138401 -0.0616236 0)
(0.138904 -0.0593392 3.68736e-21)
(0.139338 -0.0564685 1.78842e-21)
(0.139644 -0.0530219 -1.27606e-20)
(0.139761 -0.0490317 2.80507e-21)
(0.139633 -0.0445524 2.39626e-20)
(0.139211 -0.0396593 -1.60909e-20)
(0.138459 -0.0344461 7.02178e-22)
(0.137358 -0.0290194 4.08587e-21)
(0.135905 -0.0234925 -2.71297e-19)
(0.134116 -0.0179785 2.71254e-19)
(0.132021 -0.0125833 1.55867e-21)
(0.129665 -0.00740044 -5.56724e-22)
(0.127101 -0.00250657 -2.14933e-21)
(0.124387 0.00203999 1.40672e-21)
(0.12158 0.00619962 -6.02475e-22)
(0.118736 0.0099501 3.29006e-22)
(0.115905 0.0132843 1.92385e-22)
(0.113132 0.0162074 2.63163e-22)
(0.110451 0.0187343 0)
(0.107893 0.020886 0)
(0.105473 0.0226841 0)
(0.103202 0.0241518 0)
(0.101123 0.0253398 0)
(0.0995692 0.0266086 -3.58319e-22)
(0.128266 -0.0642767 8.20683e-21)
(0.128166 -0.0639266 -3.27557e-20)
(0.128561 -0.0635299 3.40331e-20)
(0.129078 -0.0626738 0)
(0.129634 -0.0612925 -3.20033e-20)
(0.130191 -0.0593651 3.6986e-20)
(0.130707 -0.0568829 -3.16696e-20)
(0.131129 -0.0538478 2.67943e-20)
(0.131402 -0.0502788 0)
(0.131471 -0.0462148 1.03883e-20)
(0.131286 -0.0417144 -2.88003e-21)
(0.130807 -0.0368545 -1.55801e-20)
(0.130006 -0.0317266 5.30224e-21)
(0.12887 -0.0264321 1.64272e-21)
(0.1274 -0.0210764 -2.58033e-19)
(0.125616 -0.0157631 2.55306e-19)
(0.123548 -0.0105876 9.48449e-22)
(0.121241 -0.0056331 5.55809e-22)
(0.118742 -0.00096737 -1.07121e-21)
(0.116106 0.00335875 9.67069e-22)
(0.113384 0.00731109 -5.34087e-22)
(0.110626 0.0108708 -2.5189e-22)
(0.107878 0.0140325 -4.93577e-21)
(0.105179 0.0168013 3.95387e-21)
(0.102563 0.0191914 -4.69198e-21)
(0.100055 0.0212219 5.32808e-21)
(0.0976708 0.0229119 0)
(0.0954216 0.0242834 -5.63309e-21)
(0.0933502 0.0253855 5.45385e-21)
(0.0917744 0.0265607 9.63695e-22)
(0.118529 -0.0626346 2.61708e-20)
(0.118571 -0.0620383 -3.40699e-20)
(0.119096 -0.0613901 -3.00462e-20)
(0.119713 -0.0602906 3.57059e-20)
(0.120339 -0.0586789 3.75313e-20)
(0.120934 -0.0565427 -7.4548e-20)
(0.121458 -0.0538835 5.22613e-20)
(0.121864 -0.0507127 -1.38384e-20)
(0.122099 -0.0470575 0)
(0.122116 -0.0429626 -1.21159e-20)
(0.121874 -0.0384898 1.08973e-20)
(0.121342 -0.0337155 -6.24751e-22)
(0.120498 -0.0287275 -1.94208e-21)
(0.119338 -0.0236202 2.73387e-21)
(0.117868 -0.0184897 -2.35078e-19)
(0.116109 -0.0134284 2.33885e-19)
(0.114093 -0.00852016 8.57432e-22)
(0.11186 -0.00383722 -4.54623e-22)
(0.109454 0.000562345 -3.21011e-23)
(0.106924 0.0046353 -1.70813e-21)
(0.104316 0.00835291 1.72137e-21)
(0.101673 0.0116996 6.46337e-22)
(0.0990352 0.0146712 3.61129e-21)
(0.0964379 0.0172729 -9.57977e-21)
(0.0939105 0.0195171 1.28487e-20)
(0.0914762 0.0214207 -6.33175e-21)
(0.0891483 0.0230004 -8.06496e-21)
(0.0869387 0.0242756 7.80685e-21)
(0.0848905 0.0252933 6.52911e-21)
(0.0833052 0.0263773 -8.14381e-21)
(0.107526 -0.0602442 4.08968e-20)
(0.107732 -0.0593916 4.80627e-21)
(0.108391 -0.0584953 -5.7253e-21)
(0.109109 -0.0571592 -3.71629e-20)
(0.109801 -0.0553319 -4.34847e-21)
(0.110428 -0.0530113 6.39555e-21)
(0.110952 -0.0502093 5.73829e-23)
(0.111331 -0.0469466 0)
(0.111521 -0.0432578 0)
(0.111483 -0.039192 -1.21581e-20)
(0.111184 -0.0348125 1.38396e-20)
(0.110603 -0.0301933 6.29206e-22)
(0.109728 -0.0254166 0)
(0.10856 -0.0205678 5.18468e-22)
(0.10711 -0.0157316 -2.04831e-19)
(0.105402 -0.0109879 2.03766e-19)
(0.103466 -0.00640775 3.41127e-22)
(0.101339 -0.00205152 0)
(0.0990611 0.00203284 3.23298e-23)
(0.0966723 0.00580992 -2.37302e-21)
(0.0942127 0.0092564 2.21528e-21)
(0.0917195 0.0123597 -3.93023e-22)
(0.0892263 0.0151168 0)
(0.0867629 0.017532 1.68769e-22)
(0.0843549 0.019616 1.79841e-21)
(0.0820225 0.0213829 -1.12533e-21)
(0.0797771 0.0228462 1.05605e-20)
(0.0776302 0.0240224 -1.33459e-23)
(0.0756251 0.0249555 4.40282e-22)
(0.0740461 0.025949 -8.19651e-21)
(0.0950058 -0.0568241 -3.8221e-20)
(0.0953902 -0.0557241 3.27057e-20)
(0.0961824 -0.054589 0)
(0.0969937 -0.0530359 -3.40483e-20)
(0.0977392 -0.0510247 4.00523e-20)
(0.0983826 -0.0485638 -1.90695e-20)
(0.0988926 -0.0456754 3.13489e-20)
(0.0992329 -0.0423885 -1.44538e-20)
(0.0993686 -0.0387434 0)
(0.0992706 -0.0347922 0)
(0.0989173 -0.030597 5.92004e-21)
(0.0982964 -0.0262274 -5.89199e-21)
(0.0974054 -0.0217572 0)
(0.0962516 -0.0172608 1.95563e-22)
(0.094851 -0.0128094 -1.63747e-19)
(0.0932273 -0.00846861 1.63712e-19)
(0.0914093 -0.00429564 -3.60191e-23)
(0.0894293 -0.000338091 0)
(0.0873209 0.00336662 1.21954e-21)
(0.0851176 0.00679111 -1.12132e-21)
(0.0828513 0.00991731 0)
(0.0805518 0.0127355 0)
(0.078246 0.0152431 6.78847e-21)
(0.0759581 0.0174434 -1.27988e-20)
(0.0737091 0.0193447 5.42905e-21)
(0.0715158 0.0209578 -1.24217e-20)
(0.0693878 0.0222927 1.38543e-20)
(0.0673356 0.0233625 0)
(0.0654017 0.0242069 -1.30116e-20)
(0.0638512 0.0251067 1.02818e-20)
(0.0806083 -0.0519272 -3.74931e-20)
(0.0811691 -0.0506082 3.64691e-20)
(0.0820769 -0.0492662 -3.86552e-20)
(0.0829579 -0.0475438 6.43728e-23)
(0.0837316 -0.045413 4.2349e-22)
(0.0843671 -0.042892 5.69385e-20)
(0.0848407 -0.0400117 -1.77706e-20)
(0.0851252 -0.0368076 -1.94873e-21)
(0.0851964 -0.0333237 1.34233e-20)
(0.0850365 -0.029612 -2.55295e-20)
(0.0846352 -0.025731 1.20136e-20)
(0.0839906 -0.0217428 4.62432e-21)
(0.0831086 -0.0177098 -5.62577e-21)
(0.0820025 -0.0136928 2.05964e-21)
(0.0806914 -0.00974752 -1.11861e-19)
(0.0791985 -0.00592369 1.11223e-19)
(0.0775497 -0.00226338 -3.02847e-22)
(0.0757714 0.00119914 1.8039e-21)
(0.0738899 0.00443729 -1.26059e-21)
(0.0719303 0.0074317 -5.30404e-21)
(0.0699162 0.0101694 1.1644e-20)