/*--------------------------------*- C++ -*----------------------------------*\
  =========                 |
  \\      /  F ield         | OpenFOAM: The Open Source CFD Toolbox
   \\    /   O peration     | Website:  https://openfoam.org
    \\  /    A nd           | Version:  12
     \\/     M anipulation  |
\*---------------------------------------------------------------------------*/
FoamFile
{
    format      ascii;
    class       volVectorField;
    location    "220";
    object      UMean;
}
// * * * * * * * * * * * * * * * * * * * * * * * * * * * * * * * * * * * * * //

dimensions      [0 1 -1 0 0 0 0];

internalField   nonuniform List<vector> 
6750
(
(0.200074 -0.00306947 0)
(0.200376 -0.00930381 0)
(0.200677 -0.0149865 0)
(0.200936 -0.0202092 0)
(0.200844 -0.0250785 0)
(0.200036 -0.00346431 0)
(0.200288 -0.00993488 0)
(0.200503 -0.0155617 0)
(0.200598 -0.0205165 0)
(0.200505 -0.0248997 0)
(0.200026 -0.00363143 0)
(0.200133 -0.0101764 0)
(0.20016 -0.0156865 0)
(0.200055 -0.0203736 0)
(0.199834 -0.0243514 0)
(0.200009 -0.00366724 0)
(0.199963 -0.0101381 0)
(0.199796 -0.0154686 0)
(0.199509 -0.0199069 0)
(0.199155 -0.0236024 0)
(0.199995 -0.00360152 0)
(0.199806 -0.00986912 0)
(0.199455 -0.0149634 0)
(0.198989 -0.0191577 0)
(0.198488 -0.022625 0)
(0.199983 -0.00345154 0)
(0.199663 -0.00940367 0)
(0.199134 -0.0142039 0)
(0.198486 -0.0181353 0)
(0.197818 -0.0213788 0)
(0.199972 -0.00323162 0)
(0.199529 -0.00876907 0)
(0.198826 -0.0132153 0)
(0.197991 -0.0168497 0)
(0.197143 -0.0198498 0)
(0.199963 -0.00295283 0)
(0.199402 -0.0079883 0)
(0.198528 -0.0120218 0)
(0.197507 -0.0153185 0)
(0.196473 -0.0180445 0)
(0.199954 -0.00262488 0)
(0.199283 -0.00708416 0)
(0.198248 -0.0106518 0)
(0.197047 -0.0135699 0)
(0.195829 -0.0159885 0)
(0.199947 -0.00225769 0)
(0.199175 -0.00608155 0)
(0.197994 -0.00913934 0)
(0.196627 -0.0116434 0)
(0.195239 -0.0137236 0)
(0.19994 -0.00186177 0)
(0.199083 -0.00500755 0)
(0.197775 -0.00752326 0)
(0.196265 -0.00958591 0)
(0.194726 -0.011303 0)
(0.199935 -0.00144793 0)
(0.199009 -0.00389009 0)
(0.197597 -0.00584437 0)
(0.195972 -0.0074482 0)
(0.194309 -0.00878556 0)
(0.199932 -0.00102663 0)
(0.198955 -0.00275632 0)
(0.197466 -0.00414265 0)
(0.195754 -0.00528047 0)
(0.194 -0.00623018 0)
(0.199928 -0.000607238 0)
(0.198923 -0.00163117 0)
(0.197383 -0.00245436 0)
(0.195615 -0.00312854 0)
(0.1938 -0.00369147 0)
(0.199918 -0.000201505 0)
(0.198917 -0.000534386 0)
(0.197346 -0.000808355 0)
(0.195551 -0.00103067 0)
(0.193707 -0.00121609 0)
(0.199918 0.000201473 0)
(0.198917 0.00053445 0)
(0.197346 0.000808553 0)
(0.195551 0.001031 0)
(0.193707 0.00121655 0)
(0.199928 0.000607205 0)
(0.198923 0.00163123 0)
(0.197383 0.00245455 0)
(0.195615 0.00312888 0)
(0.1938 0.00369192 0)
(0.199932 0.0010266 0)
(0.198955 0.00275638 0)
(0.197466 0.00414285 0)
(0.195754 0.00528081 0)
(0.194 0.00623064 0)
(0.199935 0.0014479 0)
(0.199009 0.00389016 0)
(0.197597 0.00584457 0)
(0.195971 0.00744854 0)
(0.194309 0.00878601 0)
(0.19994 0.00186174 0)
(0.199083 0.00500762 0)
(0.197775 0.00752346 0)
(0.196265 0.00958624 0)
(0.194726 0.0113035 0)
(0.199947 0.00225767 0)
(0.199175 0.00608162 0)
(0.197994 0.00913954 0)
(0.196627 0.0116437 0)
(0.195239 0.0137241 0)
(0.199954 0.00262486 0)
(0.199283 0.00708423 0)
(0.198248 0.010652 0)
(0.197047 0.0135703 0)
(0.195829 0.015989 0)
(0.199963 0.00295281 0)
(0.199402 0.00798838 0)
(0.198528 0.012022 0)
(0.197506 0.0153188 0)
(0.196473 0.018045 0)
(0.199972 0.00323161 0)
(0.199529 0.00876916 0)
(0.198826 0.0132155 0)
(0.19799 0.0168501 0)
(0.197143 0.0198502 0)
(0.199983 0.00345155 0)
(0.199663 0.00940376 0)
(0.199134 0.0142041 0)
(0.198486 0.0181356 0)
(0.197818 0.0213792 0)
(0.199995 0.00360154 0)
(0.199806 0.00986922 0)
(0.199455 0.0149636 0)
(0.198989 0.019158 0)
(0.198488 0.0226254 0)
(0.200009 0.00366727 0)
(0.199963 0.0101382 0)
(0.199796 0.0154688 0)
(0.199509 0.0199072 0)
(0.199155 0.0236027 0)
(0.200026 0.00363146 0)
(0.200133 0.0101765 0)
(0.20016 0.0156867 0)
(0.200055 0.0203738 0)
(0.199834 0.0243517 0)
(0.200036 0.00346434 0)
(0.200288 0.00993499 0)
(0.200503 0.0155619 0)
(0.200598 0.0205167 0)
(0.200505 0.0248999 0)
(0.200074 0.0030695 0)
(0.200376 0.0093039 0)
(0.200677 0.0149866 0)
(0.200936 0.0202094 0)
(0.200844 0.0250787 0)
(0.198972 -0.0359019 0)
(0.197473 -0.0409532 0)
(0.196228 -0.0455374 0)
(0.19541 -0.0496139 4.75912e-23)
(0.194879 -0.0530849 0)
(0.194579 -0.0558982 0)
(0.194498 -0.0579949 -3.63937e-21)
(0.194624 -0.0592875 3.68455e-21)
(0.194932 -0.05967 3.44622e-23)
(0.195359 -0.0590844 2.15089e-21)
(0.195875 -0.0573929 5.16076e-23)
(0.196403 -0.0544854 3.43496e-23)
(0.196864 -0.0504114 -1.15642e-21)
(0.197177 -0.0452384 -1.17051e-21)
(0.197268 -0.0391062 -2.73272e-21)
(0.197083 -0.0322208 2.73372e-21)
(0.196595 -0.0248365 -1.05694e-21)
(0.195804 -0.0172296 -9.11662e-22)
(0.19474 -0.00967585 1.62855e-22)
(0.193455 -0.0024237 1.9562e-22)
(0.192006 0.00432568 1.60968e-21)
(0.19047 0.0104573 -2.12889e-23)
(0.18893 0.0158569 1.89979e-21)
(0.187447 0.0204769 -1.883e-21)
(0.186072 0.0243145 0)
(0.184846 0.0273973 0)
(0.1838 0.0297716 -6.87341e-24)
(0.182958 0.0314955 0)
(0.182348 0.0326354 0)
(0.181946 0.0332296 0)
(0.198198 -0.0390059 0)
(0.196854 -0.04396 0)
(0.195874 -0.0481393 0)
(0.195229 -0.0517451 -4.50294e-23)
(0.194807 -0.0547678 0)
(0.194593 -0.057173 0)
(0.194585 -0.058896 4.50899e-21)
(0.19477 -0.0598465 -4.63907e-21)
(0.195119 -0.0599275 -3.24585e-23)
(0.195574 -0.0590914 0)
(0.1961 -0.0571831 0)
(0.196615 -0.0541463 -2.1187e-21)
(0.197052 -0.0500266 2.12537e-21)
(0.197333 -0.0448933 0)
(0.19739 -0.0388804 -6.94028e-21)
(0.197176 -0.0321779 6.94178e-21)
(0.196669 -0.0250168 0)
(0.19587 -0.0176481 1.80332e-21)
(0.19481 -0.0103195 -1.81417e-21)
(0.193536 -0.00325651 0)
(0.19211 0.00335735 0)
(0.190596 0.00940182 2.00063e-23)
(0.189064 0.0147755 -2.07324e-21)
(0.187579 0.0194285 2.0855e-21)
(0.18619 0.0233496 0)
(0.184935 0.0265568 0)
(0.183842 0.0290877 6.51574e-24)
(0.182932 0.030991 0)
(0.182237 0.032328 0)
(0.181759 0.0331615 0)
(0.197463 -0.0414034 0)
(0.196413 -0.0458819 0)
(0.1956 -0.0496762 0)
(0.19504 -0.0529786 5.27297e-21)
(0.194687 -0.0557473 -5.33085e-21)
(0.194543 -0.0579254 5.57462e-21)
(0.194603 -0.0594367 -5.62701e-21)
(0.19485 -0.0601894 8.06235e-23)
(0.195251 -0.0600945 0)
(0.195749 -0.0591037 0)
(0.196303 -0.0570567 -8.02531e-23)
(0.19683 -0.0539334 0)
(0.197263 -0.0497719 0)
(0.197524 -0.0446443 -1.6268e-23)
(0.197547 -0.0386824 -1.06742e-20)
(0.197289 -0.0320696 1.06751e-20)
(0.19673 -0.0250261 1.22846e-23)
(0.195877 -0.0177888 0)
(0.194763 -0.0105911 0)
(0.193437 -0.0036435 3.38442e-23)
(0.191962 0.00288067 0)
(0.190404 0.00885019 0)
(0.188832 0.014184 -3.15452e-23)
(0.187305 0.0188317 -1.09619e-21)
(0.185873 0.0227791 1.08601e-21)
(0.184572 0.0260401 -3.38823e-22)
(0.183429 0.0286469 3.26519e-22)
(0.182459 0.0306425 0)
(0.181696 0.0320889 0)
(0.1812 0.0331032 0)
(0.19681 -0.0435524 0)
(0.195964 -0.0476405 -1.25693e-20)
(0.195248 -0.0511286 6.27223e-21)
(0.194755 -0.0541669 1.33173e-20)
(0.194473 -0.0566954 -1.34834e-20)
(0.1944 -0.0586488 6.70138e-21)
(0.194528 -0.059948 0)
(0.194842 -0.0605024 2.0922e-22)
(0.195295 -0.0602372 0)
(0.195848 -0.0590855 0)
(0.196439 -0.0569045 2.86045e-21)
(0.196989 -0.053697 -2.69956e-21)
(0.197426 -0.0494949 0)
(0.19767 -0.0443732 1.70793e-23)
(0.197657 -0.038462 -1.37628e-20)
(0.197344 -0.0319384 1.37668e-20)
(0.196714 -0.0250123 -1.28994e-23)
(0.19578 -0.017908 0)
(0.194576 -0.010845 -1.0031e-21)
(0.193159 -0.00402132 9.41287e-22)
(0.191594 0.00239963 1.58079e-23)
(0.189951 0.00829498 0)
(0.188298 0.0135834 -1.07524e-23)
(0.186696 0.0182182 0)
(0.185193 0.0221844 -3.72343e-24)
(0.183826 0.0254928 3.16788e-22)
(0.18262 0.0281712 -9.1712e-22)
(0.181587 0.0302567 -1.12263e-21)
(0.180758 0.0318076 1.70919e-21)
(0.180263 0.0330007 0)
(0.196132 -0.0455956 0)
(0.19541 -0.0493482 1.56679e-20)
(0.194774 -0.0525542 -1.53743e-20)
(0.194353 -0.0553351 0)
(0.194143 -0.0576256 0)
(0.194142 -0.0593561 2.55797e-22)
(0.194339 -0.0604454 0)
(0.194721 -0.0608038 -2.19075e-22)
(0.195232 -0.0603705 3.36475e-21)
(0.195841 -0.0590534 -3.43702e-21)
(0.196469 -0.0567413 -3.03666e-21)
(0.197044 -0.0534454 2.9562e-21)
(0.197484 -0.0491969 7.84601e-23)
(0.197709 -0.0440736 -3.37777e-23)
(0.197654 -0.0382042 -1.61962e-20)
(0.197278 -0.0317606 1.62019e-20)
(0.196566 -0.024944 1.77491e-23)
(0.195535 -0.0179671 -2.59367e-23)
(0.194224 -0.0110372 6.31832e-22)
(0.192693 -0.00434002 -6.06011e-22)
(0.191014 0.00197089 -2.32959e-22)
(0.189259 0.00778037 2.14853e-22)
(0.1875 0.0130107 1.12682e-23)
(0.185798 0.0176179 0)
(0.184202 0.0215875 3.2871e-23)
(0.182752 0.0249285 0)
(0.181469 0.0276654 0)
(0.180362 0.0298296 2.86224e-21)
(0.179461 0.0314745 -2.71356e-21)
(0.178964 0.032836 0)
(0.195362 -0.0475392 1.77276e-20)
(0.194721 -0.050976 -2.77724e-20)
(0.19416 -0.0539152 9.08512e-21)
(0.193814 -0.0564521 0)
(0.193677 -0.0585166 8.97984e-21)
(0.193746 -0.0600343 -8.76982e-21)
(0.194013 -0.0609225 8.25052e-21)
(0.194461 -0.0610936 -8.50999e-21)
(0.195032 -0.0604948 0)
(0.195692 -0.0590126 -2.35769e-22)
(0.196357 -0.0565715 3.19006e-21)
(0.196951 -0.053183 -1.79559e-21)
(0.19739 -0.0488804 -3.66099e-22)
(0.197591 -0.0437441 -1.18131e-21)
(0.197489 -0.0379027 -1.79235e-20)
(0.197043 -0.0315241 1.79216e-20)
(0.196243 -0.0248022 -4.55551e-22)
(0.195106 -0.0179405 2.07832e-22)
(0.193678 -0.0111352 2.23564e-23)
(0.192024 -0.00456112 2.46509e-22)
(0.190218 0.00163765 -2.20033e-23)
(0.188337 0.00735322 0)
(0.186456 0.0125131 1.14044e-21)
(0.184639 0.0170769 -1.18332e-21)
(0.182936 0.0210314 1.70748e-21)
(0.181386 0.024385 -1.60195e-21)
(0.180013 0.0271602 -1.42508e-22)
(0.178823 0.0293842 -2.10003e-21)
(0.177842 0.0311048 5.58772e-21)
(0.177329 0.032613 -3.74329e-21)
(0.19446 -0.049373 -9.98281e-21)
(0.193875 -0.0525118 1.12727e-20)
(0.193387 -0.0552042 1.11099e-20)
(0.193113 -0.0575143 -1.12598e-20)
(0.193047 -0.0593662 1.02215e-20)
(0.193187 -0.0606818 -1.09608e-20)
(0.193524 -0.0613774 -3.40383e-22)
(0.194036 -0.0613699 0)
(0.194664 -0.0606056 4.16553e-21)
(0.19537 -0.0589602 -1.62425e-22)
(0.196066 -0.0563905 -2.11586e-22)
(0.196674 -0.0529048 -3.55216e-21)
(0.197104 -0.0485399 -1.15778e-21)
(0.197274 -0.0433793 1.74448e-21)
(0.197119 -0.0375519 -1.93378e-20)
(0.1966 -0.0312229 1.8579e-20)
(0.195707 -0.0245807 5.47158e-22)
(0.194463 -0.0178207 -3.13723e-22)
(0.192916 -0.0111298 1.64228e-22)
(0.191134 -0.00467323 3.32803e-22)
(0.189197 0.0014138 2.73575e-22)
(0.187185 0.00703061 -7.03899e-22)
(0.185175 0.0121104 0)
(0.183233 0.0166166 -1.14843e-22)
(0.181413 0.0205383 2.44255e-21)
(0.179754 0.0238846 -2.53903e-21)
(0.17828 0.0266769 2.80341e-21)
(0.176997 0.0289397 -2.60742e-21)
(0.175928 0.0307158 -2.22996e-21)
(0.175382 0.0323435 2.5456e-21)
(0.193394 -0.0510985 0)
(0.192849 -0.053961 1.11121e-20)
(0.192431 -0.0564279 -1.35069e-20)
(0.192227 -0.0585272 1.24489e-20)
(0.192232 -0.0601782 -1.18999e-20)
(0.192441 -0.0613003 1.04174e-20)
(0.192847 -0.0618098 -1.05687e-20)
(0.193415 -0.0616307 -6.63489e-22)
(0.194099 -0.0606962 -3.08595e-22)
(0.194844 -0.0588902 -2.82058e-22)
(0.195564 -0.0561905 -2.43389e-22)
(0.196177 -0.0526023 1.06022e-22)
(0.196592 -0.048167 -1.35449e-21)
(0.196724 -0.0429715 7.85847e-22)
(0.196511 -0.0371456 -1.84359e-20)
(0.195914 -0.0308526 1.91112e-20)
(0.194928 -0.0242763 -6.35706e-23)
(0.193576 -0.0176056 -1.31424e-22)
(0.19191 -0.0110191 -1.97626e-23)
(0.190003 -0.00467387 -9.96912e-23)
(0.187936 0.00130331 -8.40281e-23)
(0.185794 0.00681872 -9.98806e-23)
(0.183654 0.0118112 -2.23726e-22)
(0.181585 0.0162485 3.64545e-21)
(0.179643 0.0201223 -3.67858e-21)
(0.177869 0.0234432 3.73907e-21)
(0.176288 0.0262325 -3.47846e-21)
(0.174905 0.0285133 3.30626e-21)
(0.173741 0.0303248 -3.93596e-21)
(0.173144 0.0320429 0)
(0.192132 -0.0527227 0)
(0.191619 -0.055331 8.70162e-22)
(0.191268 -0.0575914 -1.16242e-20)
(0.191133 -0.0594937 3.81358e-22)
(0.191206 -0.0609533 1.33347e-20)
(0.191483 -0.0618887 7.71506e-22)
(0.191954 -0.062216 7.74944e-22)
(0.192573 -0.0618693 -4.73081e-21)
(0.193308 -0.0607602 5.87012e-21)
(0.194084 -0.0587962 -9.80744e-24)
(0.19482 -0.0559625 -1.95165e-21)
(0.19543 -0.0522658 1.96337e-21)
(0.19582 -0.0477524 -5.49008e-22)
(0.195908 -0.0425126 6.43097e-22)
(0.195632 -0.0366772 -1.80783e-20)
(0.194955 -0.0304084 1.80719e-20)
(0.193875 -0.0238863 -2.07804e-23)
(0.192417 -0.0172939 2.64649e-23)
(0.190638 -0.0108029 -5.25986e-22)
(0.18861 -0.00456248 7.06746e-22)
(0.186419 0.00130777 -3.11492e-23)
(0.18415 0.00672085 -2.06925e-21)
(0.181884 0.0116211 2.25071e-21)
(0.179691 0.0159806 3.17525e-22)
(0.177628 0.0197941 2.63904e-22)
(0.175738 0.0230741 -4.87808e-21)
(0.174045 0.0258425 -1.14107e-22)
(0.172558 0.0281218 5.45831e-21)
(0.171296 0.0299495 0)
(0.170632 0.031729 0)
(0.190644 -0.0542533 0)
(0.19016 -0.0566278 -1.57976e-20)
(0.189874 -0.0586977 3.83567e-22)
(0.189805 -0.0604139 4.8318e-22)
(0.189945 -0.0616896 2.81018e-20)
(0.190287 -0.0624433 -1.44178e-20)
(0.190817 -0.0625924 -8.09892e-22)
(0.191486 -0.0620763 0)
(0.192261 -0.0607899 5.08165e-21)
(0.19306 -0.0586673 -5.19398e-21)
(0.193803 -0.0556955 2.06614e-21)
(0.194401 -0.0518849 -3.92686e-22)
(0.194759 -0.0472865 -1.69465e-21)
(0.194796 -0.0419941 3.27646e-23)
(0.194453 -0.0361403 -1.62215e-20)
(0.193695 -0.0298861 1.62212e-20)
(0.192521 -0.0234083 5.02203e-24)
(0.190962 -0.016885 5.4437e-22)
(0.189074 -0.0104814 2.69248e-22)
(0.186933 -0.00433997 -1.0388e-21)
(0.184625 0.00142673 2.53966e-21)
(0.182238 0.00673782 -2.42678e-21)
(0.179853 0.0115429 0)
(0.177541 0.0158182 -3.31904e-22)
(0.175361 0.0195617 6.10178e-21)
(0.173357 0.0227879 -1.25766e-20)
(0.171554 0.0255198 -9.60338e-23)
(0.169962 0.0277802 -2.80816e-22)
(0.168599 0.0296062 5.87321e-21)
(0.167857 0.0314201 0)
(0.188902 -0.0556973 -2.17822e-21)
(0.188444 -0.0578558 0)
(0.188221 -0.0597476 -1.01117e-21)
(0.188218 -0.0612864 1.50583e-20)
(0.188422 -0.0623835 -1.64347e-20)
(0.188826 -0.0629582 1.4987e-20)
(0.189408 -0.0629322 -1.50742e-20)
(0.190123 -0.0622404 -6.46751e-21)
(0.190929 -0.0607748 1.3269e-20)
(0.191743 -0.0584919 -4.3199e-22)
(0.192485 -0.0553778 -4.90571e-21)
(0.193061 -0.051448 1.74217e-21)
(0.193379 -0.0467588 -1.10736e-21)
(0.193361 -0.0414075 -8.86904e-22)
(0.192947 -0.0355282 -1.30509e-20)
(0.192106 -0.0292812 1.32335e-20)
(0.190842 -0.0228403 2.32414e-22)
(0.189185 -0.0163789 5.76316e-22)
(0.187195 -0.0100563 -7.95764e-22)
(0.184949 -0.00400862 3.0095e-21)
(0.182534 0.0016579 6.1495e-22)
(0.180037 0.00686809 -6.04292e-21)
(0.177542 0.0115764 3.34906e-21)
(0.175121 0.0157632 7.42635e-21)
(0.172831 0.0194294 -7.32347e-21)
(0.170718 0.0225917 7.48172e-21)
(0.168809 0.0252744 -7.93784e-21)
(0.167113 0.027501 5.00139e-22)
(0.16565 0.0293095 0)
(0.164823 0.0311333 -7.33962e-22)
(0.186874 -0.0570604 2.26541e-21)
(0.186442 -0.0590171 -1.93916e-20)
(0.186282 -0.0607401 1.85634e-20)
(0.186343 -0.0621071 1.10117e-21)
(0.186609 -0.0630284 1.07303e-21)
(0.187071 -0.0634243 0)
(0.187696 -0.0632245 -1.00726e-21)
(0.188454 -0.062349 -7.96157e-21)
(0.189282 -0.0607037 1.30538e-20)
(0.190104 -0.0582568 -6.76174e-21)
(0.190835 -0.0549961 -3.15323e-22)
(0.191381 -0.0509429 1.79088e-21)
(0.191653 -0.0461584 -1.8005e-21)
(0.191573 -0.0407437 -3.00958e-23)
(0.191085 -0.0348342 -9.04791e-21)
(0.190163 -0.0285894 9.04947e-21)
(0.18881 -0.0221804 -1.81845e-23)
(0.187061 -0.0157759 1.08278e-21)
(0.184977 -0.00952964 -1.07685e-21)
(0.182635 -0.00357166 -1.79129e-22)
(0.180123 0.00199757 3.62989e-21)
(0.177528 0.00710822 -8.19443e-21)
(0.174934 0.0117193 3.53909e-21)
(0.172412 0.0158148 -5.96651e-22)
(0.170022 0.0193986 0)
(0.167808 0.0224894 5.28553e-22)
(0.165798 0.0251128 5.25888e-22)
(0.164002 0.0272933 -8.65513e-21)
(0.162443 0.0290709 8.00223e-21)
(0.161527 0.0308837 7.6325e-22)
(0.184527 -0.0583459 0)
(0.184123 -0.0601111 -6.83421e-23)
(0.184026 -0.0616709 1.98023e-20)
(0.184149 -0.062869 -2.01872e-20)
(0.184474 -0.0636154 -1.86812e-20)
(0.18499 -0.0638317 2.87667e-20)
(0.185657 -0.0634545 -7.86187e-21)
(0.186447 -0.0623886 -3.3633e-23)
(0.18729 -0.0605621 -9.19626e-22)
(0.188111 -0.0579473 0)
(0.188823 -0.0545364 -2.39138e-21)
(0.189332 -0.0503565 4.24108e-21)
(0.189551 -0.045474 -1.84214e-21)
(0.189404 -0.0399935 3.14922e-23)
(0.188841 -0.0340514 -3.48915e-21)
(0.187837 -0.0278066 3.48628e-21)
(0.186399 -0.0214269 1.90297e-23)
(0.184564 -0.0150765 1.39688e-21)
(0.182394 -0.00890384 -3.16453e-21)
(0.179966 -0.003033 1.76244e-21)
(0.177368 0.00244103 0)
(0.174687 0.00745338 -6.49006e-22)
(0.172005 0.0119672 -8.63302e-23)
(0.169395 0.0159699 6.01797e-21)
(0.166914 0.0194678 -1.5478e-20)
(0.164609 0.0224818 1.07037e-20)
(0.162506 0.0250383 1.07345e-20)
(0.160617 0.0271633 -1.11502e-20)
(0.158966 0.0288987 -7.94394e-23)
(0.15796 0.0306833 0)
(0.181825 -0.0595538 0)
(0.181452 -0.0611339 -2.04697e-20)
(0.181417 -0.0625327 2.22851e-20)
(0.181603 -0.0635624 1.96847e-20)
(0.181985 -0.0641324 -2.14557e-20)
(0.182548 -0.0641678 -1.07608e-20)
(0.183255 -0.063605 8.19791e-22)
(0.18407 -0.0623436 1.01623e-20)
(0.184921 -0.0603331 1.94371e-21)
(0.185733 -0.0575469 0)
(0.186416 -0.053983 0)
(0.186881 -0.0496747 -1.59167e-21)
(0.187041 -0.0446935 1.96867e-21)
(0.186825 -0.039147 0)
(0.186185 -0.0331727 3.57662e-21)
(0.185101 -0.0269281 -3.57975e-21)
(0.183582 -0.0205779 0)
(0.181668 -0.0142815 -1.64296e-21)
(0.17942 -0.00818171 2.00212e-21)
(0.176916 -0.00239709 0)
(0.174244 0.00298273 0)
(0.171489 0.00789752 1.44564e-21)
(0.168733 0.0123143 -5.51276e-21)
(0.166045 0.0162233 -2.36052e-22)
(0.163486 0.0196334 5.51959e-21)
(0.161099 0.0225668 1.27732e-20)
(0.158912 0.0250511 -1.33694e-20)
(0.156937 0.0271133 -1.2153e-20)
(0.155202 0.0287981 1.25852e-20)
(0.154108 0.0305408 0)
(0.178731 -0.0606808 0)
(0.178393 -0.0620758 0)
(0.178421 -0.0633143 0)
(0.178668 -0.0641739 -2.14369e-20)
(0.179106 -0.0645633 1.07856e-20)
(0.17971 -0.0644157 1.23988e-20)
(0.180453 -0.0636557 1.28477e-21)
(0.181286 -0.0621962 8.74446e-21)
(0.182138 -0.0599981 -1.15428e-21)
(0.182932 -0.0570376 -7.78378e-21)
(0.183581 -0.0533192 -3.68134e-22)
(0.183994 -0.0488827 -5.62497e-22)
(0.184091 -0.0438042 -7.68987e-22)
(0.183802 -0.0381942 5.5849e-22)
(0.183086 -0.0321908 1.23118e-20)
(0.181923 -0.0259497 -1.23055e-20)
(0.180329 -0.0196318 -8.38375e-22)
(0.178342 -0.0133916 5.5486e-22)
(0.176026 -0.00736642 -5.97598e-22)
(0.173458 -0.00166893 -3.74378e-22)
(0.170724 0.00361632 6.57754e-21)
(0.167907 0.0084335 6.16584e-22)
(0.165089 0.0127531 -6.91569e-21)
(0.162338 0.0165681 9.73503e-22)
(0.159711 0.0198891 -6.50981e-21)
(0.157254 0.0227398 -8.53214e-21)
(0.154993 0.0251484 1.54774e-20)
(0.152941 0.0271429 0)
(0.151128 0.0287705 0)
(0.149951 0.0304612 0)
(0.175199 -0.0617162 -2.6042e-20)
(0.174901 -0.062925 2.74659e-20)
(0.174993 -0.064001 0)
(0.175302 -0.0646862 -1.23826e-20)
(0.175794 -0.0648899 1.40164e-20)
(0.176439 -0.0645519 1.11207e-20)
(0.177212 -0.0635856 -1.41087e-20)
(0.178056 -0.0619251 0)
(0.178902 -0.0595357 -1.09368e-21)
(0.179672 -0.0563991 0)
(0.180278 -0.0525266 -4.28695e-25)
(0.180635 -0.0479641 6.13252e-24)
(0.180663 -0.0427925 1.86626e-22)
(0.1803 -0.0371244 4.19404e-23)
(0.179507 -0.031098 2.28975e-20)
(0.17827 -0.0248666 -2.29161e-20)
(0.176606 -0.018587 1.02595e-22)
(0.174555 -0.0124082 2.86278e-22)
(0.172181 -0.00646155 -4.62521e-23)
(0.16956 -0.000854167 -4.99403e-23)
(0.166776 0.00433458 0)
(0.163911 0.00905303 -9.37828e-22)
(0.161044 0.0132749 0)
(0.158242 0.0169954 6.5136e-21)
(0.155561 0.0202268 -8.37881e-21)
(0.153045 0.0229935 -7.61605e-21)
(0.150721 0.0253243 8.45462e-21)
(0.148601 0.0272478 0)
(0.146719 0.028814 -1.34592e-20)
(0.145464 0.0304452 1.45977e-20)
(0.171183 -0.0626444 0)
(0.17093 -0.063664 8.60639e-23)
(0.171089 -0.0645726 2.93915e-20)
(0.171462 -0.0650767 -2.80117e-20)
(0.172003 -0.0650892 1.67022e-21)
(0.172689 -0.0645489 -3.12653e-21)
(0.173487 -0.0633696 1.43981e-21)
(0.174336 -0.0615049 0)
(0.175169 -0.0589217 0)
(0.175907 -0.0556088 0)
(0.176465 -0.0515848 3.99658e-22)
(0.176759 -0.0469015 -1.59376e-21)
(0.176716 -0.0416438 2.30552e-21)
(0.176278 -0.0359263 -5.39672e-22)
(0.17541 -0.0298863 3.55555e-20)
(0.174102 -0.0236742 -3.59613e-20)
(0.172374 -0.017442 1.53841e-21)
(0.170268 -0.0113326 -4.40411e-21)
(0.167847 -0.00547136 3.43119e-21)
(0.165186 4.06746e-05 4.57945e-22)
(0.162366 0.00512914 5.6635e-22)
(0.159467 0.00974638 0)
(0.156565 0.013869 0)
(0.153725 0.0174943 1.16922e-21)
(0.151002 0.0206356 -2.49023e-21)
(0.148439 0.0233179 1.30605e-21)
(0.146062 0.0255698 1.95979e-20)
(0.143884 0.0274208 -1.78763e-20)
(0.141941 0.0289226 1.22655e-22)
(0.140615 0.0304899 0)
(0.166627 -0.0634419 -3.02304e-20)
(0.166425 -0.064271 2.80459e-20)
(0.166655 -0.0650034 1.30286e-20)
(0.167092 -0.0653168 -1.51336e-20)
(0.167683 -0.0651309 -1.53198e-20)
(0.168408 -0.0643744 1.5676e-20)
(0.169225 -0.0629792 1.18597e-20)
(0.170075 -0.0609065 -1.06385e-20)
(0.170889 -0.0581284 5.19622e-21)
(0.171588 -0.0546414 -4.6321e-21)
(0.172091 -0.0504712 3.24659e-21)
(0.172318 -0.0456753 -1.92628e-21)
(0.172201 -0.0403423 -8.60247e-22)
(0.171688 -0.0345877 8.4152e-24)
(0.170747 -0.0285475 5.04264e-20)
(0.169375 -0.022368 -5.04528e-20)
(0.167591 -0.0161957 8.27225e-23)
(0.16544 -0.0101673 2.01692e-21)
(0.162984 -0.00440105 2.44884e-21)
(0.160295 0.00100782 -4.19272e-21)
(0.157453 0.00599009 4.56784e-21)
(0.154535 0.010502 -4.38347e-21)
(0.151612 0.0145229 1.27189e-20)
(0.148749 0.0180515 -1.1057e-20)
(0.145997 0.0211021 -1.0131e-20)
(0.143399 0.0236997 9.88718e-21)
(0.140981 0.0258727 1.12273e-20)
(0.138754 0.0276505 -1.22587e-20)
(0.13676 0.0290867 -2.05792e-20)
(0.135369 0.0305874 1.95232e-20)
(0.16147 -0.06408 -2.05933e-21)
(0.161322 -0.0647147 -3.22218e-20)
(0.161628 -0.0652586 3.54715e-20)
(0.162131 -0.0653717 0)
(0.162775 -0.0649752 -1.94899e-21)
(0.163536 -0.0639929 0)
(0.164368 -0.0623782 -1.7113e-21)
(0.165213 -0.0600952 1.12998e-20)
(0.166001 -0.0571236 -1.21081e-20)
(0.166656 -0.0534677 5.54774e-22)
(0.167098 -0.0491602 -8.57849e-22)
(0.167255 -0.044264 -2.9273e-22)
(0.167063 -0.0388705 -8.49175e-23)
(0.166474 -0.0330956 -8.73505e-24)
(0.165465 -0.0270727 6.77887e-20)
(0.164034 -0.0209435 -6.78022e-20)
(0.162204 -0.0148479 -8.5863e-23)
(0.160019 -0.00891535 -2.24615e-22)
(0.157541 -0.00325726 6.04858e-22)
(0.15484 0.00203768 0)
(0.151991 0.00690537 7.50244e-22)
(0.149068 0.0113058 1.17549e-20)
(0.14614 0.0152208 -1.20971e-20)
(0.143268 0.0186504 -1.69918e-21)
(0.140502 0.0216092 0)
(0.137882 0.024122 -1.70533e-21)
(0.135432 0.0262162 0)
(0.133168 0.0279211 -2.30019e-20)
(0.13113 0.0292916 2.39952e-20)
(0.129683 0.0307249 -1.39354e-21)
(0.155635 -0.0645203 -3.29723e-20)
(0.15555 -0.0649508 3.46065e-20)
(0.155938 -0.065293 1.1617e-22)
(0.156509 -0.0651969 1.86667e-20)
(0.157208 -0.0645735 -3.08149e-20)
(0.158002 -0.063361 1.82109e-20)
(0.158846 -0.0615235 1.76157e-21)
(0.15968 -0.0590304 5.2195e-23)
(0.160436 -0.0558697 0)
(0.16104 -0.0520538 -5.72918e-22)
(0.161418 -0.0476224 -2.06047e-21)
(0.161501 -0.0426429 3.28155e-21)
(0.161231 -0.0372089 6.75725e-23)
(0.16057 -0.0314357 1.58081e-22)
(0.159497 -0.025453 8.76984e-20)
(0.158015 -0.0193965 -8.85984e-20)
(0.156149 -0.0133989 8.53557e-22)
(0.153944 -0.00758175 2.9539e-22)
(0.151459 -0.00204875 -6.27829e-21)
(0.148761 0.00311806 5.58791e-21)
(0.145922 0.00785985 -7.74774e-22)
(0.143011 0.0121403 0)
(0.140095 0.0159435 -1.71249e-21)
(0.137229 0.0192703 1.74908e-21)
(0.134463 0.0221353 -1.29723e-20)
(0.131834 0.0245626 3.11126e-20)
(0.129367 0.0265784 -1.25073e-20)
(0.127075 0.0282112 1.85607e-22)
(0.125002 0.0295168 -2.53604e-20)
(0.123505 0.0308829 2.70831e-20)
(0.149032 -0.0647086 0)
(0.149023 -0.0649222 0)
(0.149497 -0.0650504 -2.06242e-20)
(0.150142 -0.0647316 1.67322e-20)
(0.150897 -0.0638701 0)
(0.151723 -0.062424 -2.03549e-21)
(0.152574 -0.0603622 -1.95404e-21)
(0.153392 -0.0576624 -1.68324e-21)
(0.154109 -0.0543214 0)
(0.154656 -0.0503598 0)
(0.154964 -0.0458234 -4.54675e-22)
(0.154969 -0.0407838 9.86547e-22)
(0.154624 -0.0353357 -9.78002e-22)
(0.153892 -0.0295924 6.01779e-24)
(0.152762 -0.0236787 1.10957e-19)
(0.151239 -0.0177235 -1.11023e-19)
(0.14935 -0.0118509 -1.20433e-22)
(0.147139 -0.00617371 2.17046e-21)
(0.144664 -0.000787438 -2.79092e-21)
(0.141987 0.0042329 0)
(0.139176 0.00883386 0)
(0.136297 0.0129828 0)
(0.13341 0.0166656 0)
(0.130568 0.019884 -2.19295e-21)
(0.127818 0.0226521 -1.99445e-21)
(0.125195 0.0249925 0)
(0.122722 0.0269299 -1.84689e-20)
(0.120413 0.0284918 1.41298e-20)
(0.118315 0.0297338 0)
(0.116775 0.0310339 0)
(0.141553 -0.0645721 -2.5713e-21)
(0.141634 -0.064555 0)
(0.142202 -0.0644577 0)
(0.142928 -0.0638984 0)
(0.143738 -0.0627939 0)
(0.144593 -0.0611116 0)
(0.145446 -0.058828 1.9957e-21)
(0.146241 -0.0559301 9.24779e-22)
(0.146913 -0.0524237 -5.56384e-21)
(0.147397 -0.0483372 1.96838e-21)
(0.147629 -0.0437223 7.85857e-21)
(0.147556 -0.0386536 -3.96502e-21)
(0.147135 -0.0332257 7.54709e-22)
(0.146338 -0.0275484 5.28827e-23)
(0.145159 -0.0217404 1.37318e-19)
(0.143606 -0.0159222 -1.37366e-19)
(0.141709 -0.0102084 -2.68876e-21)
(0.139511 -0.00470214 -6.06262e-22)
(0.137064 0.00051002 1.05992e-20)
(0.134429 0.00536042 -1.44294e-20)
(0.131668 0.00980113 3.9685e-22)
(0.128841 0.0138031 8.57561e-21)
(0.126004 0.017354 1.21613e-21)
(0.123206 0.0204558 2.23967e-21)
(0.120489 0.0231217 0)
(0.117888 0.0253727 0)
(0.115423 0.0272311 0)
(0.11311 0.0287228 0)
(0.110997 0.0299028 0)
(0.109421 0.0311385 -2.1058e-21)
(0.133068 -0.0640118 5.37585e-21)
(0.133254 -0.0637507 -2.14794e-20)
(0.133926 -0.0634105 2.23294e-20)
(0.134736 -0.0626002 0)
(0.135601 -0.0612501 -1.93508e-20)
(0.13648 -0.0593334 2.23482e-20)
(0.13733 -0.0568364 -1.7247e-20)
(0.138094 -0.0537562 1.4619e-20)
(0.138713 -0.0501077 0)
(0.139126 -0.0459266 3.80954e-21)
(0.139279 -0.0412695 -2.02192e-21)
(0.139126 -0.0362129 -3.73398e-21)
(0.138631 -0.0308496 7.64344e-22)
(0.137776 -0.0252846 -4.49407e-22)
(0.136558 -0.0196288 1.67649e-19)
(0.134991 -0.0139926 -1.65987e-19)
(0.133103 -0.00848014 -1.20652e-21)
(0.130938 -0.00318365 -3.2925e-21)
(0.128543 0.00181975 1.20635e-20)
(0.125974 0.00647021 1.06169e-21)
(0.123287 0.0107255 -1.02116e-20)
(0.120537 0.01456 -1.32605e-21)
(0.117773 0.0179631 -2.38467e-20)
(0.115041 0.0209366 1.93199e-20)
(0.112379 0.0234924 -1.87168e-20)
(0.109819 0.0256491 2.09266e-20)
(0.107379 0.0274266 0)
(0.105076 0.0288483 -2.02601e-20)
(0.102958 0.0299677 1.96154e-20)
(0.101354 0.0311406 4.53456e-21)
(0.123409 -0.0628877 1.77219e-20)
(0.123717 -0.0623685 -2.3051e-20)
(0.124504 -0.06177 -1.98592e-20)
(0.125398 -0.0607058 2.37068e-20)
(0.126315 -0.0591112 2.34469e-20)
(0.127213 -0.0569691 -4.53576e-20)
(0.12805 -0.0542765 3.04049e-20)
(0.128774 -0.0510407 -7.76728e-21)
(0.12933 -0.0472855 0)
(0.129665 -0.043053 -4.55487e-21)
(0.129734 -0.0384036 4.16453e-21)
(0.1295 -0.0334139 -1.26175e-22)
(0.128936 -0.0281735 1.32877e-22)
(0.128031 -0.0227804 -4.2058e-22)
(0.126789 -0.0173358 2.01047e-19)
(0.125226 -0.0119388 -2.00072e-19)
(0.123371 -0.00668128 -2.47532e-21)
(0.121263 -0.00164386 1.76158e-21)
(0.118948 0.00310663 -5.9413e-22)
(0.116474 0.00751855 -1.29166e-20)
(0.113891 0.0115555 1.16518e-20)
(0.111247 0.0151954 2.83621e-21)
(0.108585 0.0184288 1.33159e-20)
(0.105946 0.0212572 -3.27926e-20)
(0.103364 0.0236907 4.16638e-20)
(0.100867 0.0257453 -2.0316e-20)
(0.0984723 0.0274373 -2.36236e-20)
(0.0961959 0.0287876 2.28675e-20)
(0.0940872 0.0298469 2.09823e-20)
(0.0924656 0.0309577 -2.65333e-20)
(0.112363 -0.0609954 2.8512e-20)
(0.112812 -0.0602036 3.37576e-21)
(0.113715 -0.0593441 -4.37119e-21)
(0.114691 -0.058028 -2.54535e-20)
(0.115653 -0.0562001 -2.8042e-21)
(0.116559 -0.0538542 4.00049e-21)
(0.117371 -0.0509984 7.21736e-23)
(0.118041 -0.0476503 0)
(0.118522 -0.0438414 0)
(0.118772 -0.0396195 -4.62366e-21)
(0.118753 -0.0350467 5.18859e-21)
(0.118439 -0.030198 1.27075e-22)
(0.117814 -0.0251573 0)
(0.116873 -0.0200136 -2.88395e-22)
(0.115625 -0.0148566 2.38915e-19)
(0.114089 -0.00977203 -2.37793e-19)
(0.112295 -0.00483822 -1.05277e-21)
(0.110277 -0.000123071 0)
(0.108075 0.00431757 5.98363e-22)
(0.105732 0.00844067 -1.03825e-20)
(0.103289 0.0122158 1.00609e-20)
(0.100787 0.0156243 -1.50033e-21)
(0.0982623 0.0186578 0)
(0.0957499 0.0213169 1.8954e-22)
(0.0932793 0.0236097 4.94358e-21)
(0.0908748 0.0255487 -3.15059e-21)
(0.0885518 0.0271468 2.64726e-20)
(0.0863254 0.028421 -2.30064e-23)
(0.0842454 0.0294186 2.23728e-21)
(0.0826187 0.0304661 -2.14137e-20)
(0.0996392 -0.0580216 -2.76251e-20)
(0.100241 -0.0569606 2.36795e-20)
(0.101257 -0.0558452 0)
(0.102305 -0.0542936 -2.33681e-20)
(0.103295 -0.0522618 2.75616e-20)
(0.104191 -0.0497552 -1.20659e-20)
(0.104959 -0.0467929 1.92404e-20)
(0.105558 -0.0434015 -8.59152e-21)
(0.105952 -0.0396194 0)
(0.106107 -0.0354976 0)
(0.105999 -0.0310983 1.58748e-21)
(0.10561 -0.0264918 -1.47678e-21)
(0.104935 -0.0217541 0)
(0.103978 -0.0169628 -6.89161e-23)
(0.102751 -0.0121935 2.80718e-19)
(0.101275 -0.00751703 -2.80757e-19)
(0.0995782 -0.00299657 2.44724e-22)
(0.0976907 0.00131373 0)
(0.0956461 0.00536969 5.25733e-21)
(0.0934787 0.00913724 -5.08295e-21)
(0.0912218 0.012592 0)
(0.0889075 0.0157185 0)
(0.0865657 0.0185094 1.68326e-20)
(0.0842236 0.0209639 -3.13013e-20)
(0.0819061 0.0230876 1.28633e-20)
(0.0796334 0.0248892 -2.80214e-20)
(0.0774181 0.0263775 3.09833e-20)
(0.0752744 0.0275652 0)
(0.0732513 0.028495 -2.98807e-20)
(0.0716398 0.0294734 2.36927e-20)
(0.084831 -0.0534707 -2.80874e-20)
(0.0855811 -0.0521655 2.73123e-20)
(0.0866903 -0.050824 -2.83734e-20)
(0.0877817 -0.0490834 8.75679e-22)
(0.0887719 -0.0469123 1.29347e-21)
(0.0896283 -0.0443267 3.8598e-20)
(0.0903247 -0.0413553 -1.1648e-20)
(0.090832 -0.0380324 -1.13063e-21)
(0.0911229 -0.0344006 6.56921e-21)
(0.091177 -0.0305118 -1.13339e-20)
(0.090981 -0.0264249 4.6959e-21)
(0.0905301 -0.022203 2.34948e-22)
(0.0898277 -0.0179108 3.57443e-22)
(0.0888842 -0.0136115 -1.03319e-21)
(0.0877166 -0.00936478 3.28443e-19)
(0.0863462 -0.00522428 -3.26865e-19)
(0.0847972 -0.00123692 -3.65032e-21)
(0.083095 0.00255789 8.58582e-21)
(0.0812655 0.00612817 -5.18908e-21)
(0.0793338 0.00944903 -1.44795e-20)
(0.077324 0.0125022 2.97818e-20)
(0.0752591 0.0152753 -1.51204e-20)