/*--------------------------------*- C++ -*----------------------------------*\
  =========                 |
  \\      /  F ield         | OpenFOAM: The Open Source CFD Toolbox
   \\    /   O peration     | Website:  https://openfoam.org
    \\  /    A nd           | Version:  12
     \\/     M anipulation  |
\*---------------------------------------------------------------------------*/
FoamFile
{
    format      ascii;
    class       volSymmTensorField;
    location    "220";
    object      UPrime2Mean;
}
// * * * * * * * * * * * * * * * * * * * * * * * * * * * * * * * * * * * * * //

dimensions      [0 2 -2 0 0 0 0];

internalField   nonuniform List<symmTensor> 
6750
(
(2.93106e-10 4.33337e-09 0 1.22457e-07 0 0)
(6.90149e-09 8.29702e-08 0 1.70659e-06 0 0)
(2.23891e-08 2.78736e-07 0 5.43666e-06 0 0)
(4.15611e-08 5.64863e-07 0 1.13322e-05 0 0)
(9.91085e-08 1.21075e-06 0 1.91834e-05 0 0)
(2.84556e-11 4.61488e-10 0 9.31103e-08 0 0)
(1.24214e-09 3.4157e-08 0 1.43592e-06 0 0)
(8.60756e-09 1.69054e-07 0 4.66772e-06 0 0)
(2.97802e-08 4.71273e-07 0 9.70999e-06 0 0)
(7.961e-08 1.02582e-06 0 1.62264e-05 0 0)
(2.34663e-11 5.03992e-10 0 8.47169e-08 0 0)
(1.00981e-09 3.39282e-08 0 1.31032e-06 0 0)
(8.97536e-09 1.82346e-07 0 4.20555e-06 0 0)
(3.49829e-08 5.16766e-07 0 8.56045e-06 0 0)
(9.09636e-08 1.06557e-06 0 1.38969e-05 0 0)
(1.9945e-11 4.62343e-10 0 7.41281e-08 0 0)
(1.47791e-09 4.02555e-08 0 1.15826e-06 0 0)
(1.2436e-08 2.08841e-07 0 3.68045e-06 0 0)
(4.53611e-08 5.64892e-07 0 7.38862e-06 0 0)
(1.09013e-07 1.10667e-06 0 1.18295e-05 0 0)
(1.51064e-11 3.56527e-10 0 6.22764e-08 0 0)
(1.99631e-09 4.39254e-08 0 9.91766e-07 0 0)
(1.6315e-08 2.24178e-07 0 3.14219e-06 0 0)
(5.67035e-08 5.90029e-07 0 6.26683e-06 0 0)
(1.29873e-07 1.12536e-06 0 9.9722e-06 0 0)
(1.00472e-11 2.01369e-10 0 5.06315e-08 0 0)
(2.39902e-09 4.42225e-08 0 8.24708e-07 0 0)
(1.98897e-08 2.27314e-07 0 2.61689e-06 0 0)
(6.80898e-08 5.93284e-07 0 5.20693e-06 0 0)
(1.53247e-07 1.12096e-06 0 8.26429e-06 0 0)
(7.51984e-12 4.50646e-11 0 3.99516e-08 0 0)
(2.70291e-09 4.22935e-08 0 6.65268e-07 0 0)
(2.32447e-08 2.21702e-07 0 2.11857e-06 0 0)
(7.9881e-08 5.79734e-07 0 4.21441e-06 0 0)
(1.79646e-07 1.09476e-06 0 6.68287e-06 0 0)
(9.034e-12 -7.90596e-11 0 3.05251e-08 0 0)
(2.96224e-09 3.90803e-08 0 5.18248e-07 0 0)
(2.65635e-08 2.09724e-07 0 1.65728e-06 0 0)
(9.23151e-08 5.5172e-07 0 3.29901e-06 0 0)
(2.08917e-07 1.04514e-06 0 5.23033e-06 0 0)
(1.46543e-11 -1.59888e-10 0 2.24222e-08 0 0)
(3.20965e-09 3.50612e-08 0 3.8682e-07 0 0)
(2.98863e-08 1.92421e-07 0 1.24195e-06 0 0)
(1.05149e-07 5.09667e-07 0 2.47472e-06 0 0)
(2.39918e-07 9.69544e-07 0 3.92392e-06 0 0)
(2.34085e-11 -1.98934e-10 0 1.56375e-08 0 0)
(3.45209e-09 3.04446e-08 0 2.73275e-07 0 0)
(3.31168e-08 1.70307e-07 0 8.80524e-07 0 0)
(1.17766e-07 4.5386e-07 0 1.7563e-06 0 0)
(2.70809e-07 8.66881e-07 0 2.78536e-06 0 0)
(3.37252e-11 -2.03085e-10 0 1.01459e-08 0 0)
(3.6802e-09 2.5345e-08 0 1.79195e-07 0 0)
(3.60882e-08 1.43959e-07 0 5.79218e-07 0 0)
(1.29378e-07 3.85505e-07 0 1.15639e-06 0 0)
(2.99442e-07 7.38827e-07 0 1.83436e-06 0 0)
(4.38966e-11 -1.80584e-10 0 5.91158e-09 0 0)
(3.87594e-09 1.98684e-08 0 1.05401e-07 0 0)
(3.86139e-08 1.14215e-07 0 3.41746e-07 0 0)
(1.39232e-07 3.0696e-07 0 6.82893e-07 0 0)
(3.23845e-07 5.8984e-07 0 1.08348e-06 0 0)
(5.21644e-11 -1.38189e-10 0 2.88072e-09 0 0)
(4.01622e-09 1.41454e-08 0 5.18955e-08 0 0)
(4.05313e-08 8.21699e-08 0 1.68896e-07 0 0)
(1.46742e-07 2.21435e-07 0 3.37786e-07 0 0)
(3.42558e-07 4.26326e-07 0 5.36025e-07 0 0)
(5.56e-11 -7.95181e-11 0 9.75405e-10 0 0)
(4.06766e-09 8.33731e-09 0 1.78877e-08 0 0)
(4.17273e-08 4.90639e-08 0 5.85704e-08 0 0)
(1.51575e-07 1.32517e-07 0 1.17235e-07 0 0)
(3.54793e-07 2.55504e-07 0 1.86069e-07 0 0)
(4.85784e-11 -1.96438e-11 0 1.05384e-10 0 0)
(3.95502e-09 2.64417e-09 0 1.85993e-09 0 0)
(4.21702e-08 1.61029e-08 0 6.24261e-09 0 0)
(1.53732e-07 4.36763e-08 0 1.25505e-08 0 0)
(3.60528e-07 8.43713e-08 0 1.99553e-08 0 0)
(4.86576e-11 1.54954e-11 0 1.31443e-10 0 0)
(3.95572e-09 -2.72685e-09 0 1.98687e-09 0 0)
(4.21689e-08 -1.63983e-08 0 6.50341e-09 0 0)
(1.53727e-07 -4.42249e-08 0 1.29239e-08 0 0)
(3.60515e-07 -8.51755e-08 0 2.04217e-08 0 0)
(5.55007e-11 7.68345e-11 0 1.05384e-09 0 0)
(4.0659e-09 -8.42052e-09 0 1.82801e-08 0 0)
(4.1721e-08 -4.93562e-08 0 5.93647e-08 0 0)
(1.51558e-07 -1.33056e-07 0 1.18369e-07 0 0)
(3.54749e-07 -2.5629e-07 0 1.87483e-07 0 0)
(5.19475e-11 1.36756e-10 0 3.01234e-09 0 0)
(4.01271e-09 -1.42241e-08 0 5.25613e-08 0 0)
(4.052e-08 -8.24513e-08 0 1.70239e-07 0 0)
(1.46712e-07 -2.21952e-07 0 3.39699e-07 0 0)
(3.42483e-07 -4.2707e-07 0 5.38408e-07 0 0)
(4.36349e-11 1.80756e-10 0 6.09359e-09 0 0)
(3.87117e-09 -1.99391e-08 0 1.06343e-07 0 0)
(3.85986e-08 -1.14478e-07 0 3.43644e-07 0 0)
(1.39192e-07 -3.07444e-07 0 6.85589e-07 0 0)
(3.23744e-07 -5.9052e-07 0 1.08683e-06 0 0)
(3.34858e-11 2.05213e-10 0 1.03733e-08 0 0)
(3.67487e-09 -2.54055e-08 0 1.80412e-07 0 0)
(3.60711e-08 -1.44201e-07 0 5.81669e-07 0 0)
(1.29332e-07 -3.85947e-07 0 1.15986e-06 0 0)
(2.99318e-07 -7.39422e-07 0 1.83866e-06 0 0)
(2.32639e-11 2.03103e-10 0 1.59032e-08 0 0)
(3.44685e-09 -3.04937e-08 0 2.74762e-07 0 0)
(3.30999e-08 -1.70525e-07 0 8.83523e-07 0 0)
(1.17718e-07 -4.54254e-07 0 1.76053e-06 0 0)
(2.70664e-07 -8.6737e-07 0 2.79056e-06 0 0)
(1.46748e-11 1.66021e-10 0 2.27175e-08 0 0)
(3.20445e-09 -3.50947e-08 0 3.88566e-07 0 0)
(2.98673e-08 -1.92603e-07 0 1.24548e-06 0 0)
(1.05098e-07 -5.09998e-07 0 2.47963e-06 0 0)
(2.39764e-07 -9.69911e-07 0 3.92985e-06 0 0)
(9.26163e-12 8.70616e-11 0 3.08393e-08 0 0)
(2.95605e-09 -3.90872e-08 0 5.20225e-07 0 0)
(2.65362e-08 -2.09836e-07 0 1.66131e-06 0 0)
(9.22474e-08 -5.51937e-07 0 3.30456e-06 0 0)
(2.08755e-07 -1.04538e-06 0 5.23691e-06 0 0)
(7.93983e-12 -3.58015e-11 0 4.02725e-08 0 0)
(2.69627e-09 -4.22724e-08 0 6.67432e-07 0 0)
(2.32124e-08 -2.21741e-07 0 2.12307e-06 0 0)
(7.98121e-08 -5.79881e-07 0 4.22077e-06 0 0)
(1.79488e-07 -1.09496e-06 0 6.69081e-06 0 0)
(1.06149e-11 -1.92151e-10 0 5.09493e-08 0 0)
(2.39356e-09 -4.41862e-08 0 8.27021e-07 0 0)
(1.98633e-08 -2.27331e-07 0 2.62184e-06 0 0)
(6.80435e-08 -5.93466e-07 0 5.21413e-06 0 0)
(1.5312e-07 -1.12121e-06 0 8.27359e-06 0 0)
(1.57442e-11 -3.48003e-10 0 6.25853e-08 0 0)
(1.99191e-09 -4.38761e-08 0 9.94204e-07 0 0)
(1.62931e-08 -2.24174e-07 0 3.14762e-06 0 0)
(5.66661e-08 -5.90215e-07 0 6.2751e-06 0 0)
(1.29756e-07 -1.12561e-06 0 9.98324e-06 0 0)
(2.05443e-11 -4.55292e-10 0 7.44244e-08 0 0)
(1.47448e-09 -4.01993e-08 0 1.16079e-06 0 0)
(1.24183e-08 -2.08825e-07 0 3.68636e-06 0 0)
(4.53324e-08 -5.65113e-07 0 7.39816e-06 0 0)
(1.08901e-07 -1.10688e-06 0 1.18426e-05 0 0)
(2.38841e-11 -4.98536e-10 0 8.49989e-08 0 0)
(1.00633e-09 -3.38667e-08 0 1.31291e-06 0 0)
(8.95887e-09 -1.82316e-07 0 4.2119e-06 0 0)
(3.49489e-08 -5.16933e-07 0 8.57127e-06 0 0)
(9.08451e-08 -1.06556e-06 0 1.39125e-05 0 0)
(2.86122e-11 -4.58462e-10 0 9.33751e-08 0 0)
(1.23706e-09 -3.41031e-08 0 1.4385e-06 0 0)
(8.58824e-09 -1.69016e-07 0 4.6744e-06 0 0)
(2.97377e-08 -4.71357e-07 0 9.72203e-06 0 0)
(7.94911e-08 -1.02543e-06 0 1.62447e-05 0 0)
(2.92432e-10 -4.33075e-09 0 1.22705e-07 0 0)
(6.8888e-09 -8.29077e-08 0 1.70907e-06 0 0)
(2.23557e-08 -2.7861e-07 0 5.44336e-06 0 0)
(4.15018e-08 -5.64546e-07 0 1.13449e-05 0 0)
(9.89729e-08 -1.20961e-06 0 1.92035e-05 0 0)
(1.06828e-06 6.72919e-06 0 4.62611e-05 0 0)
(2.4908e-06 1.23369e-05 0 6.50725e-05 0 0)
(4.37265e-06 1.88563e-05 0 8.56052e-05 0 0)
(6.39463e-06 2.55468e-05 -5.34641e-25 0.000106863 -1.33097e-24 1.25388e-42)
(8.49596e-06 3.22335e-05 0 0.000127611 0 0)
(1.06196e-05 3.8703e-05 0 0.000146816 0 0)
(1.26904e-05 4.4696e-05 5.50426e-23 0.000163542 1.41319e-22 4.83233e-39)
(1.46543e-05 4.99818e-05 -6.07844e-23 0.000176868 -1.54938e-22 4.91757e-39)
(1.64406e-05 5.4315e-05 -5.16468e-25 0.000185896 -1.31315e-24 2.76012e-43)
(1.81385e-05 5.78053e-05 -3.59713e-23 0.000190537 -9.09616e-23 1.04052e-39)
(1.96573e-05 6.01674e-05 5.56291e-26 0.000189986 -1.66256e-25 2.14962e-42)
(2.10375e-05 6.12664e-05 1.82125e-25 0.000183437 2.16143e-25 2.53537e-42)
(2.22998e-05 6.12112e-05 2.1356e-23 0.000171883 5.08198e-23 2.47314e-40)
(2.34764e-05 6.00537e-05 2.1896e-23 0.000156141 5.06745e-23 2.01416e-40)
(2.46024e-05 5.78645e-05 5.26541e-23 0.000137379 1.17728e-22 8.99529e-40)
(2.57115e-05 5.47131e-05 -5.41831e-23 0.00011699 -1.16413e-22 8.99679e-40)
(2.68432e-05 5.06676e-05 2.23345e-23 9.64249e-05 4.57331e-23 1.19716e-40)
(2.80382e-05 4.57834e-05 2.13215e-23 7.70053e-05 4.12422e-23 8.5492e-41)
(2.934e-05 4.01254e-05 -1.19062e-24 5.98401e-05 -2.2065e-24 2.69124e-42)
(3.08049e-05 3.37826e-05 -1.28534e-24 4.57205e-05 -2.13904e-24 2.33073e-42)
(3.25386e-05 2.68938e-05 -4.36988e-23 3.50614e-05 -6.61664e-23 2.99764e-40)
(3.45478e-05 1.94512e-05 6.72198e-25 2.76838e-05 8.89356e-25 5.99632e-44)
(3.67691e-05 1.16176e-05 -8.20137e-23 2.35756e-05 -9.41505e-23 7.74563e-40)
(3.92009e-05 3.58702e-06 8.3417e-23 2.23552e-05 7.89387e-23 7.60912e-40)
(4.18127e-05 -4.45388e-06 0 2.34738e-05 0 0)
(4.45411e-05 -1.23278e-05 0 2.63171e-05 0 0)
(4.7308e-05 -1.98706e-05 1.28383e-24 3.02808e-05 4.36961e-25 1.23296e-43)
(5.00661e-05 -2.69203e-05 0 3.48183e-05 0 0)
(5.28736e-05 -3.32858e-05 0 3.94271e-05 0 0)
(5.541e-05 -3.87646e-05 0 4.35748e-05 0 0)
(1.67116e-06 9.26704e-06 0 5.54337e-05 0 0)
(3.27558e-06 1.52805e-05 0 7.55781e-05 0 0)
(5.12822e-06 2.16032e-05 0 9.56918e-05 0 0)
(7.09591e-06 2.7987e-05 5.33548e-25 0.000115554 1.32155e-24 1.11525e-42)
(9.15769e-06 3.4344e-05 0 0.000134423 0 0)
(1.12489e-05 4.04572e-05 0 0.00015152 0 0)
(1.33054e-05 4.60977e-05 -5.27388e-23 0.000166052 -1.32317e-22 4.1755e-39)
(1.52854e-05 5.10711e-05 5.89787e-23 0.000177236 1.46023e-22 4.3729e-39)
(1.7136e-05 5.51852e-05 4.96838e-25 0.00018437 1.22267e-24 2.43274e-43)
(1.89435e-05 5.8569e-05 0 0.000187587 0 0)
(2.06086e-05 6.08687e-05 0 0.000185791 0 0)
(2.22003e-05 6.2075e-05 3.83864e-23 0.000178781 8.92832e-23 7.62091e-40)
(2.36968e-05 6.2214e-05 -4.03988e-23 0.000167406 -9.12294e-23 7.66892e-40)
(2.51198e-05 6.13168e-05 0 0.000152406 0 0)
(2.64833e-05 5.94201e-05 1.47756e-22 0.000134803 3.13445e-22 6.64028e-39)
(2.77994e-05 5.65632e-05 -1.52371e-22 0.000115785 -3.11145e-22 6.63593e-39)
(2.90878e-05 5.27921e-05 0 9.65739e-05 0 0)
(3.03785e-05 4.81617e-05 -4.34167e-23 7.83092e-05 -8.04876e-23 3.64621e-40)
(3.17114e-05 4.27385e-05 4.44137e-23 6.194e-05 7.7572e-23 3.68226e-40)
(3.31435e-05 3.66182e-05 0 4.81761e-05 0 0)
(3.47193e-05 2.98943e-05 0 3.74157e-05 0 0)
(3.65006e-05 2.264e-05 -6.53936e-25 2.9643e-05 -8.69511e-25 5.27668e-44)
(3.84982e-05 1.50145e-05 8.14482e-23 2.48533e-05 9.33178e-23 7.0131e-40)
(4.06726e-05 7.16376e-06 -8.38627e-23 2.27784e-05 -8.09179e-23 7.1306e-40)
(4.30098e-05 -7.3576e-07 0 2.29977e-05 0 0)
(4.54683e-05 -8.51763e-06 0 2.50039e-05 0 0)
(4.79808e-05 -1.60336e-05 -1.22235e-24 2.82688e-05 -5.31804e-25 1.09385e-43)
(5.04797e-05 -2.3153e-05 0 3.22954e-05 0 0)
(5.30087e-05 -2.97579e-05 0 3.66495e-05 0 0)
(5.54771e-05 -3.59139e-05 0 4.10676e-05 0 0)
(2.32425e-06 1.16649e-05 0 6.2618e-05 0 0)
(3.89833e-06 1.73799e-05 0 8.19073e-05 0 0)
(5.72979e-06 2.34555e-05 0 0.000100839 0 0)
(7.72277e-06 2.96904e-05 -3.61694e-23 0.000119415 -8.86653e-23 4.52403e-39)
(9.82562e-06 3.59091e-05 4.20925e-23 0.000136935 1.02239e-22 4.63087e-39)
(1.19764e-05 4.1891e-05 -4.99897e-23 0.000152632 -1.215e-22 4.63802e-39)
(1.41326e-05 4.74436e-05 5.60002e-23 0.000165749 1.33899e-22 4.72567e-39)
(1.62632e-05 5.23927e-05 -9.81867e-25 0.000175587 -2.32518e-24 1.0961e-42)
(1.83415e-05 5.65997e-05 0 0.000181598 0 0)
(2.04355e-05 6.0158e-05 0 0.000183953 0 0)
(2.2456e-05 6.26891e-05 1.22758e-24 0.000181449 2.70201e-24 9.04172e-43)
(2.44679e-05 6.42317e-05 0 0.000174302 0 0)
(2.64185e-05 6.47412e-05 0 0.00016321 0 0)
(2.83094e-05 6.42164e-05 3.61162e-25 0.000148863 7.22682e-25 4.35357e-44)
(3.01238e-05 6.26537e-05 2.67147e-22 0.000132189 5.16787e-22 1.88984e-38)
(3.18436e-05 6.00607e-05 -2.76593e-22 0.000114241 -5.14419e-22 1.88981e-38)
(3.34604e-05 5.64628e-05 -3.89763e-25 9.60965e-05 -6.95228e-25 3.09415e-44)
(3.49833e-05 5.19075e-05 0 7.87557e-05 0 0)
(3.64426e-05 4.64691e-05 0 6.30622e-05 0 0)
(3.78918e-05 4.02518e-05 -1.56106e-24 4.96485e-05 -2.33776e-24 3.32771e-43)
(3.93936e-05 3.33784e-05 0 3.88995e-05 0 0)
(4.10056e-05 2.59913e-05 0 3.09786e-05 0 0)
(4.27564e-05 1.82172e-05 1.48367e-24 2.57984e-05 1.63255e-24 2.11541e-43)
(4.46489e-05 1.02236e-05 9.32191e-23 2.31719e-05 8.72722e-23 7.32539e-40)
(4.66792e-05 2.18531e-06 -9.39693e-23 2.27658e-05 -7.26573e-23 7.18955e-40)
(4.88249e-05 -5.73254e-06 9.33912e-23 2.41531e-05 5.67725e-23 6.11409e-40)
(5.10448e-05 -1.3382e-05 -9.43905e-23 2.6868e-05 -4.18463e-23 5.96129e-40)
(5.32815e-05 -2.06321e-05 0 3.04491e-05 0 0)
(5.54987e-05 -2.7366e-05 0 3.4477e-05 0 0)
(5.73171e-05 -3.37458e-05 0 3.88316e-05 0 0)
(2.97084e-06 1.3936e-05 0 6.93724e-05 0 0)
(4.52361e-06 1.94338e-05 5.36483e-23 8.78463e-05 1.31363e-22 2.1011e-38)
(6.40341e-06 2.54315e-05 -3.28987e-23 0.00010575 -7.88158e-23 5.54782e-39)
(8.47806e-06 3.16184e-05 -8.0888e-23 0.000123111 -1.93856e-22 2.18382e-38)
(1.06838e-05 3.77817e-05 9.45912e-23 0.000139259 2.23938e-22 2.1559e-38)
(1.29802e-05 4.37364e-05 -5.32792e-23 0.000153489 -1.23745e-22 5.23427e-39)
(1.53462e-05 4.93236e-05 0 0.000165124 0 0)
(1.77517e-05 5.43721e-05 -2.07492e-24 0.000173561 -4.58622e-24 4.64108e-42)
(2.02308e-05 5.88472e-05 0 0.000178481 0 0)
(2.27655e-05 6.26741e-05 0 0.00017987 0 0)
(2.53389e-05 6.55711e-05 -4.66359e-23 0.0001767 -9.41546e-23 1.09695e-39)
(2.79663e-05 6.75432e-05 4.72987e-23 0.000169442 9.14298e-23 9.78197e-40)
(3.05791e-05 6.85015e-05 0 0.000158651 0 0)
(3.31476e-05 6.84075e-05 -4.15651e-25 0.000144981 -7.47275e-25 4.79861e-44)
(3.56163e-05 6.72182e-05 4.13055e-22 0.000129264 7.15351e-22 3.7936e-38)
(3.79274e-05 6.49092e-05 -4.29403e-22 0.000112423 -7.13823e-22 3.79345e-38)
(4.00378e-05 6.14844e-05 4.53e-25 9.53928e-05 7.23205e-25 3.4104e-44)
(4.19306e-05 5.69834e-05 0 7.90391e-05 0 0)
(4.36223e-05 5.14854e-05 5.79723e-23 6.41012e-05 8.38411e-23 4.07714e-40)
(4.51637e-05 4.51091e-05 -5.48513e-23 5.11483e-05 -7.47532e-23 3.56564e-40)
(4.66301e-05 3.80028e-05 -1.79735e-24 4.05526e-05 -2.26473e-24 3.2688e-43)
(4.80938e-05 3.03277e-05 0 3.24892e-05 0 0)
(4.96071e-05 2.22483e-05 3.48611e-24 2.6951e-05 3.56831e-24 1.00067e-42)
(5.1204e-05 1.39453e-05 0 2.38012e-05 0 0)
(5.2901e-05 5.60034e-06 -1.05624e-22 2.27796e-05 -7.94974e-23 7.39127e-40)
(5.46939e-05 -2.61787e-06 2.06189e-22 2.35342e-05 1.2546e-22 2.67147e-39)
(5.65673e-05 -1.05591e-05 -2.02516e-22 2.56633e-05 -9.37648e-23 2.37719e-39)
(5.84975e-05 -1.80895e-05 -9.79104e-23 2.87503e-05 -3.14468e-23 4.85617e-40)
(6.04112e-05 -2.50928e-05 2.01427e-22 3.24007e-05 3.66064e-23 2.053e-39)
(6.14372e-05 -3.18346e-05 0 3.66184e-05 0 0)
(3.68158e-06 1.63021e-05 0 7.59824e-05 0 0)
(5.28203e-06 2.17332e-05 -6.03135e-23 9.3561e-05 -1.46897e-22 2.41648e-38)
(7.26687e-06 2.77231e-05 7.15976e-23 0.000110313 1.70108e-22 2.33584e-38)
(9.47688e-06 3.39003e-05 0 0.000126301 0 0)
(1.18606e-05 4.00685e-05 0 0.000140932 0 0)
(1.44027e-05 4.60792e-05 -1.79015e-24 0.000153573 -3.9204e-24 5.37243e-42)
(1.70976e-05 5.17905e-05 0 0.000163639 0 0)
(1.99228e-05 5.70378e-05 2.31909e-24 0.000170619 4.75658e-24 5.09749e-42)
(2.29478e-05 6.18476e-05 -4.08853e-23 0.000174435 -8.04039e-23 1.1946e-39)
(2.61082e-05 6.60151e-05 4.52298e-23 0.0001748 8.49498e-23 1.21256e-39)
(2.94326e-05 6.93451e-05 5.09358e-23 0.000171045 9.21141e-23 1.12181e-39)
(3.28807e-05 7.17849e-05 -5.36005e-23 0.000163715 -9.21325e-23 1.0636e-39)
(3.63737e-05 7.32266e-05 -1.78027e-24 0.000153294 -2.93773e-24 9.13154e-43)
(3.98394e-05 7.35919e-05 9.4388e-25 0.000140387 1.49659e-24 2.08448e-43)
(4.31744e-05 7.2803e-05 5.92819e-22 0.000125727 9.06806e-22 6.42225e-38)
(4.62729e-05 7.08056e-05 -6.18431e-22 0.000110108 -9.07659e-22 6.42195e-38)
(4.90485e-05 6.75818e-05 -1.05122e-24 9.43161e-05 -1.4858e-24 1.5139e-43)
(5.14525e-05 6.31594e-05 2.13228e-24 7.90821e-05 2.88997e-24 5.37346e-43)
(5.34847e-05 5.76169e-05 -6.80786e-23 6.50337e-05 -8.79149e-23 4.55681e-40)
(5.51936e-05 5.10815e-05 6.64989e-23 5.26696e-05 8.14447e-23 4.2446e-40)
(5.66645e-05 4.37182e-05 6.89916e-23 4.23377e-05 7.87629e-23 3.73791e-40)
(5.79937e-05 3.57112e-05 -6.68221e-23 3.42269e-05 -7.05811e-23 3.45992e-40)
(5.92652e-05 2.72551e-05 -4.04199e-24 2.83854e-05 -3.86491e-24 1.09903e-42)
(6.05442e-05 1.855e-05 0 2.4737e-05 0 0)
(6.18726e-05 9.79086e-06 3.91501e-24 2.30942e-05 2.82082e-24 8.78445e-43)
(6.32662e-05 1.15571e-06 0 2.31811e-05 0 0)
(6.47317e-05 -7.19687e-06 0 2.46643e-05 0 0)
(6.62823e-05 -1.51241e-05 2.29907e-22 2.71811e-05 8.01487e-23 2.39316e-39)
(6.78432e-05 -2.25096e-05 -2.22499e-22 3.03679e-05 -4.99886e-23 2.18548e-39)
(6.7993e-05 -2.97903e-05 0 3.43385e-05 0 0)
(4.53837e-06 1.89024e-05 -5.29492e-23 8.22282e-05 -1.21836e-22 2.37774e-38)
(6.26586e-06 2.43737e-05 9.83136e-23 9.8659e-05 2.33988e-22 5.85868e-38)
(8.41834e-06 3.03968e-05 -3.90689e-23 0.000114071 -8.96563e-23 6.3189e-39)
(1.08382e-05 3.66093e-05 0 0.000128538 0 0)
(1.3496e-05 4.2845e-05 -5.49301e-23 0.000141541 -1.17025e-22 5.97907e-39)
(1.63989e-05 4.89773e-05 6.14615e-23 0.000152517 1.24731e-22 5.75267e-39)
(1.95552e-05 5.48729e-05 -7.02896e-23 0.00016097 -1.36775e-22 5.31375e-39)
(2.29537e-05 6.03771e-05 8.16435e-23 0.000166504 1.50125e-22 5.77434e-39)
(2.66932e-05 6.5552e-05 0 0.000169206 0 0)
(3.06782e-05 7.00867e-05 3.15772e-24 0.000168566 5.25811e-24 4.95009e-42)
(3.49612e-05 7.38622e-05 -5.6043e-23 0.000164323 -8.93848e-23 1.14758e-39)
(3.94539e-05 7.67731e-05 3.06592e-23 0.000157001 4.58842e-23 3.14767e-40)
(4.40587e-05 7.86983e-05 4.22713e-24 0.000147041 5.77539e-24 7.60413e-42)
(4.86521e-05 7.95261e-05 3.40159e-23 0.000134993 4.71201e-23 2.31152e-40)
(5.30745e-05 7.91497e-05 8.119e-22 0.000121493 1.08912e-21 9.83845e-38)
(5.71624e-05 7.74886e-05 -8.49197e-22 0.000107203 -1.09428e-21 9.83754e-38)
(6.07782e-05 7.45027e-05 4.04565e-23 9.27693e-05 5.04284e-23 1.72172e-40)
(6.38357e-05 7.02044e-05 -5.36697e-24 7.87835e-05 -6.44511e-24 5.20698e-42)
(6.63147e-05 6.46644e-05 3.96195e-23 6.57607e-05 4.54586e-23 1.12523e-40)
(6.8262e-05 5.80108e-05 -8.06911e-23 5.41223e-05 -8.85442e-23 5.02142e-40)
(6.97761e-05 5.04177e-05 -4.97781e-24 4.41826e-05 -5.1366e-24 1.63863e-42)
(7.09808e-05 4.20883e-05 0 3.614e-05 0 0)
(7.19968e-05 3.32399e-05 1.5188e-22 3.00815e-05 1.33508e-22 1.22057e-39)
(7.29258e-05 2.40933e-05 -1.553e-22 2.59888e-05 -1.23135e-22 1.27135e-39)
(7.3841e-05 1.48602e-05 1.49094e-22 2.37458e-05 1.0312e-22 1.01758e-39)
(7.47827e-05 5.73263e-06 -1.43039e-22 2.31518e-05 -8.44353e-23 9.31879e-40)
(7.57796e-05 -3.11716e-06 -8.70875e-24 2.39446e-05 -4.14597e-24 3.1324e-42)
(7.68792e-05 -1.15302e-05 -1.33253e-22 2.58222e-05 -4.94386e-23 6.7656e-40)
(7.80207e-05 -1.93813e-05 3.87068e-22 2.84604e-05 1.00176e-22 5.42913e-39)
(7.72046e-05 -2.73427e-05 -2.70197e-22 3.20411e-05 -3.74517e-23 2.62052e-39)
(5.62936e-06 2.18283e-05 2.83567e-23 8.78157e-05 6.37709e-23 6.02576e-39)
(7.57503e-06 2.74224e-05 -3.77016e-23 0.000102841 -8.56731e-23 7.69285e-39)
(9.97565e-06 3.3521e-05 -4.58216e-23 0.000116758 -9.94058e-23 7.48086e-39)
(1.2701e-05 3.98149e-05 5.46495e-23 0.000129593 1.12144e-22 7.68438e-39)
(1.5748e-05 4.61652e-05 -6.06456e-23 0.000140883 -1.1837e-22 6.47157e-39)
(1.91438e-05 5.24574e-05 7.47886e-23 0.000150146 1.37223e-22 7.48209e-39)
(2.29099e-05 5.85618e-05 2.45507e-24 0.000156976 4.1925e-24 6.09305e-42)
(2.70605e-05 6.43511e-05 0 0.000161109 0 0)
(3.16991e-05 6.98731e-05 -5.16376e-23 0.000162697 -7.99554e-23 1.41157e-39)
(3.67264e-05 7.47626e-05 -3.58907e-24 0.000161127 -5.98633e-24 1.28201e-42)
(4.21916e-05 7.89561e-05 -3.90549e-24 0.000156509 -6.19821e-24 1.06545e-42)
(4.79677e-05 8.23101e-05 7.21254e-23 0.000149292 9.45653e-23 1.34516e-39)
(5.39265e-05 8.46928e-05 3.53818e-23 0.000139891 4.47826e-23 2.34806e-40)
(5.98851e-05 8.59687e-05 -6.06394e-23 0.000128798 -7.33683e-23 5.87461e-40)
(6.56182e-05 8.60089e-05 1.09315e-21 0.000116551 1.28228e-21 1.4643e-37)
(7.08964e-05 8.471e-05 -1.10073e-21 0.000103687 -1.24383e-21 1.35259e-37)
(7.55239e-05 8.20097e-05 -6.87239e-23 9.07135e-05 -7.54623e-23 4.16416e-40)
(7.93716e-05 7.79007e-05 5.27388e-23 7.80904e-05 5.60405e-23 2.23164e-40)
(8.23979e-05 7.24392e-05 9.38241e-23 6.622e-05 9.61226e-23 5.62758e-40)
(8.46481e-05 6.57455e-05 4.99577e-24 5.54432e-05 4.62508e-24 7.5481e-43)
(8.6238e-05 5.79945e-05 4.8143e-24 4.60329e-05 4.1412e-24 7.04374e-43)
(8.73227e-05 4.93997e-05 -9.23305e-23 3.81856e-05 -8.13334e-23 4.3244e-40)
(8.80638e-05 4.01947e-05 0 3.20169e-05 0 0)
(8.86051e-05 3.06187e-05 -5.5845e-24 2.75598e-05 -4.0934e-24 1.28632e-42)
(8.9057e-05 2.09013e-05 1.58894e-22 2.4764e-05 1.04749e-22 9.4299e-40)
(8.94893e-05 1.12505e-05 -1.67177e-22 2.35007e-05 -9.6219e-23 1.04903e-39)
(8.99564e-05 1.85502e-06 1.59447e-22 2.35811e-05 7.69976e-23 8.49816e-40)
(9.05387e-05 -7.10292e-06 -1.47661e-22 2.47663e-05 -5.75249e-23 7.28575e-40)
(9.11966e-05 -1.54821e-05 -1.43116e-22 2.67809e-05 -4.12603e-23 6.07363e-40)
(8.93337e-05 -2.42411e-05 1.60626e-22 2.98249e-05 2.93173e-23 7.81707e-40)
(7.06322e-06 2.51542e-05 0 9.24638e-05 0 0)
(9.33427e-06 3.09326e-05 -3.70545e-23 0.00010587 -7.84399e-23 6.3003e-39)
(1.20816e-05 3.71393e-05 5.39992e-23 0.000118173 1.07155e-22 9.36186e-39)
(1.52278e-05 4.35445e-05 -6.0994e-23 0.000129292 -1.1387e-22 8.04081e-39)
(1.87974e-05 5.00294e-05 6.75749e-23 0.000138811 1.17433e-22 7.31607e-39)
(2.28375e-05 5.64873e-05 -7.39053e-23 0.000146338 -1.20667e-22 6.03061e-39)
(2.73797e-05 6.27869e-05 8.48778e-23 0.000151563 1.28407e-22 6.19256e-39)
(3.24961e-05 6.88664e-05 6.39641e-24 0.000154375 9.04144e-24 2.58704e-41)
(3.82278e-05 7.46611e-05 3.62535e-24 0.000154848 4.8235e-24 6.20654e-42)
(4.45345e-05 7.98636e-05 4.06975e-24 0.000152481 5.11254e-24 5.90465e-42)
(5.14198e-05 8.44177e-05 4.58113e-24 0.000147611 5.487e-24 5.58468e-42)
(5.87296e-05 8.8163e-05 -2.51093e-24 0.000140611 -2.86441e-24 1.30264e-42)
(6.629e-05 9.09612e-05 4.59753e-23 0.000131872 5.04413e-23 3.32741e-40)
(7.38506e-05 9.26632e-05 -2.32569e-23 0.000121827 -2.41916e-23 8.10468e-41)
(8.11123e-05 9.31244e-05 1.35103e-21 0.000110918 1.38622e-21 1.84399e-37)
(8.77721e-05 9.2222e-05 -1.46814e-21 9.95625e-05 -1.45738e-21 1.98053e-37)
(9.35704e-05 8.98705e-05 -2.63765e-23 8.81382e-05 -2.56845e-23 4.39561e-41)
(9.83323e-05 8.60386e-05 4.7581e-23 7.69779e-05 4.49374e-23 1.50794e-40)
(0.000101993 8.07604e-05 -3.42917e-24 6.63752e-05 -3.14508e-24 6.42518e-43)
(0.0001046 7.41393e-05 -1.37134e-23 5.65894e-05 -1.21506e-23 9.08834e-42)
(0.000106288 6.63418e-05 -6.82516e-24 4.78455e-05 -5.78945e-24 2.01758e-42)
(0.00010725 5.75822e-05 -6.73269e-24 4.03277e-05 -5.41424e-24 1.78586e-42)
(0.000107691 4.81035e-05 -1.32076e-23 3.41703e-05 -9.94068e-24 6.32527e-42)
(0.000107802 3.8159e-05 2.16581e-22 2.94484e-05 1.50445e-22 1.5351e-39)
(0.000107737 2.79946e-05 -2.1333e-22 2.61702e-05 -1.34852e-22 1.49216e-39)
(0.0001076 1.78351e-05 1.92226e-22 2.42749e-05 1.07177e-22 1.07138e-39)
(0.000107475 7.88711e-06 -1.77292e-22 2.36441e-05 -8.55902e-23 9.19006e-40)
(0.000107479 -1.64115e-06 1.57662e-22 2.41054e-05 6.32302e-23 6.48876e-40)
(0.000107592 -1.05854e-05 -1.88295e-22 2.54376e-05 -6.0391e-23 9.28947e-40)
(0.000104619 -2.0229e-05 0 2.7811e-05 0 0)
(8.97482e-06 2.89275e-05 0 9.59092e-05 0 0)
(1.16977e-05 3.49236e-05 -2.74584e-24 0.000107522 -5.21503e-24 3.0842e-41)
(1.49088e-05 4.12507e-05 4.72042e-23 0.000118127 8.3908e-23 5.92767e-39)
(1.861e-05 4.77685e-05 2.22042e-26 0.000127467 4.57641e-25 3.19252e-42)
(2.28554e-05 5.43757e-05 -7.58788e-23 0.000135192 -1.15214e-22 7.94502e-39)
(2.77116e-05 6.09696e-05 -5.58771e-24 0.000140997 -7.92122e-24 2.99747e-41)
(3.32217e-05 6.74193e-05 -6.30427e-24 0.000144664 -8.1789e-24 2.91541e-41)
(3.95238e-05 7.37386e-05 5.09261e-23 0.000146254 6.22811e-23 1.33758e-39)
(4.65749e-05 7.97179e-05 -7.03882e-23 0.00014567 -8.01358e-23 2.01993e-39)
(5.44092e-05 8.51643e-05 -6.86802e-26 0.000142678 -1.15307e-25 1.39961e-46)
(6.29622e-05 8.99957e-05 4.13515e-23 0.00013768 4.26025e-23 3.75375e-40)
(7.20594e-05 9.40644e-05 -4.53956e-23 0.000131014 -4.41898e-23 3.79895e-40)
(8.14662e-05 9.72293e-05 2.15787e-23 0.00012304 2.05093e-23 6.13458e-41)
(9.08565e-05 9.93362e-05 -2.64805e-23 0.00011413 -2.41575e-23 8.11534e-41)
(9.985e-05 0.000100231 1.72242e-21 0.000104634 1.54753e-21 2.51798e-37)
(0.000108064 9.97733e-05 -1.80638e-21 9.48549e-05 -1.57942e-21 2.51802e-37)
(0.000115171 9.7853e-05 -3.04488e-23 8.50506e-05 -2.62358e-23 5.40441e-41)
(0.00012095 9.44093e-05 3.5154e-23 7.54362e-05 2.96538e-23 6.75786e-41)
(0.000125314 8.94463e-05 -5.91027e-23 6.62014e-05 -4.87326e-23 1.50166e-40)
(0.000128312 8.30416e-05 7.9394e-23 5.75248e-05 6.38389e-23 2.61822e-40)
(0.000130107 7.53432e-05 -5.16946e-26 4.95791e-05 -2.6525e-26 7.83746e-47)
(0.000130931 6.65572e-05 -1.23876e-22 4.25276e-05 -9.1746e-23 4.79054e-40)
(0.000131039 5.69283e-05 1.37706e-22 3.65127e-05 9.70881e-23 5.9015e-40)
(0.000130673 4.67188e-05 1.49806e-23 3.16419e-05 9.79504e-24 6.21373e-42)
(0.000130035 3.61887e-05 1.43849e-23 2.79733e-05 8.70962e-24 5.43499e-42)
(0.000129266 2.55779e-05 -2.233e-22 2.55075e-05 -1.21139e-22 1.19359e-39)
(0.000128488 1.5113e-05 3.00942e-24 2.4192e-05 1.84625e-24 3.672e-42)
(0.000127857 5.02758e-06 2.37992e-22 2.39222e-05 9.82333e-23 1.2962e-39)
(0.00012737 -4.4883e-06 0 2.4535e-05 0 0)
(0.00012325 -1.50616e-05 0 2.61276e-05 0 0)
(1.1531e-05 3.3157e-05 0 9.79029e-05 0 0)
(1.4853e-05 3.93668e-05 5.35017e-23 0.000107596 9.02061e-23 9.51599e-39)
(1.86625e-05 4.57949e-05 9.42038e-26 0.000116447 5.19544e-25 2.95238e-42)
(2.30708e-05 5.23929e-05 -9.81924e-27 0.000123988 4.17604e-25 3.54787e-42)
(2.81657e-05 5.90757e-05 -1.65569e-22 0.000129934 -2.15323e-22 3.17599e-38)
(3.40306e-05 6.57428e-05 9.96379e-23 0.000134075 1.18737e-22 8.52505e-39)
(4.07292e-05 7.22772e-05 7.23594e-24 0.00013629 8.03999e-24 3.18475e-41)
(4.84286e-05 7.87218e-05 0 0.000136752 0 0)
(5.70532e-05 8.47888e-05 -7.01297e-23 0.000135235 -6.83224e-23 1.61428e-39)
(6.66651e-05 9.03795e-05 7.85607e-23 0.00013179 7.12517e-23 1.65209e-39)
(7.71405e-05 9.53976e-05 -4.6717e-23 0.000126804 -4.10419e-23 4.1179e-40)
(8.82735e-05 9.97162e-05 -1.35482e-25 0.000120596 -7.31737e-25 8.40127e-43)
(9.97594e-05 0.000103201 5.57321e-23 0.000113488 4.51597e-23 3.87542e-40)
(0.000111189 0.0001057 -1.86866e-24 0.00010579 -1.4897e-24 3.326e-43)
(0.000122093 0.000107056 2.1097e-21 9.77632e-05 1.6637e-21 3.21852e-37)
(0.000132006 0.00010711 -2.21261e-21 8.96095e-05 -1.71034e-21 3.22148e-37)
(0.00014053 0.000105725 2.16921e-24 8.14755e-05 1.66305e-24 2.44366e-43)
(0.000147398 0.000102804 7.11428e-23 7.34692e-05 5.39124e-23 2.11744e-40)
(0.000152505 9.83144e-05 -1.76937e-25 6.56841e-05 -2.20728e-25 8.53725e-43)
(0.000155908 9.22969e-05 -9.08643e-23 5.82202e-05 -6.66103e-23 2.87496e-40)
(0.000157798 8.48724e-05 1.53191e-22 5.11953e-05 1.08997e-22 6.72983e-40)
(0.000158452 7.623e-05 -1.43441e-22 4.47446e-05 -9.90447e-23 5.83636e-40)
(0.000158183 6.66085e-05 0 3.90091e-05 0 0)
(0.000157287 5.6274e-05 -1.70494e-23 3.41179e-05 -1.06248e-23 6.78809e-42)
(0.000156015 4.5497e-05 2.65678e-22 3.01694e-05 1.53224e-22 1.48502e-39)
(0.000154553 3.45311e-05 -5.34377e-22 2.72176e-05 -2.83164e-22 5.87522e-39)
(0.000153064 2.36235e-05 3.1563e-24 2.52704e-05 2.0146e-24 4.04496e-42)
(0.000151741 1.30329e-05 -1.22467e-23 2.42887e-05 -4.69864e-24 2.12325e-42)
(0.000150602 2.97322e-06 2.35792e-22 2.41705e-05 8.50064e-23 1.01192e-39)
(0.000145328 -8.52507e-06 0 2.49048e-05 0 0)
(1.49334e-05 3.77974e-05 5.83332e-24 9.82256e-05 9.04223e-24 1.51274e-40)
(1.90213e-05 4.41715e-05 0 0.000105928 0 0)
(2.35814e-05 5.06472e-05 4.34828e-24 0.000113005 5.72553e-24 3.63733e-41)
(2.88671e-05 5.72587e-05 -7.65153e-23 0.000118769 -9.13152e-23 7.99559e-39)
(3.50014e-05 6.39342e-05 9.58272e-23 0.000123001 1.0344e-22 9.41536e-39)
(4.20807e-05 7.05749e-05 -1.11928e-22 0.000125582 -1.11832e-22 8.87717e-39)
(5.02091e-05 7.71031e-05 1.28603e-22 0.000126497 1.17193e-22 9.12362e-39)
(5.95265e-05 8.3526e-05 7.37794e-23 0.000125932 6.35949e-23 2.09983e-39)
(6.99836e-05 8.95649e-05 -1.77928e-22 0.000123659 -1.43658e-22 9.40636e-39)
(8.16199e-05 9.51867e-05 -6.19885e-24 0.000119943 -5.97444e-24 1.97458e-42)
(9.42657e-05 0.000100297 9.78124e-23 0.00011512 7.15772e-23 1.71981e-39)
(0.000107668 0.000104794 -5.76345e-23 0.00010949 -4.16993e-23 4.21777e-40)
(0.000121443 0.000108562 3.10583e-23 0.000103339 2.13683e-23 1.16202e-40)
(0.000135092 0.000111458 5.25699e-23 9.69129e-05 3.64827e-23 2.31674e-40)
(0.000148052 0.000113322 2.51611e-21 9.03931e-05 1.74609e-21 3.96526e-37)
(0.000159771 0.000113977 -2.67173e-21 8.38898e-05 -1.83294e-21 4.07544e-37)
(0.000169784 0.000113255 5.6278e-23 7.74526e-05 3.86495e-23 1.39233e-40)
(0.000177778 0.000111017 4.02907e-23 7.10942e-05 2.75699e-23 5.1892e-41)
(0.000183634 0.000107182 -8.18035e-23 6.482e-05 -5.56144e-23 2.29591e-40)
(0.000187423 0.000101747 1.85149e-22 5.86553e-05 1.24085e-22 9.33128e-40)
(0.000189371 9.47962e-05 9.77943e-24 5.26618e-05 5.87157e-24 1.21279e-42)
(0.000189806 8.64932e-05 -3.05136e-22 4.69406e-05 -1.95939e-22 2.1391e-39)
(0.000189099 7.70645e-05 1.60592e-22 4.16222e-05 9.98053e-23 5.66264e-40)
(0.000187608 6.67747e-05 3.12114e-22 3.68471e-05 1.83837e-22 1.83436e-39)
(0.000185638 5.59007e-05 -3.06471e-22 3.2744e-05 -1.71201e-22 1.78389e-39)
(0.00018342 4.47094e-05 2.94489e-22 2.94111e-05 1.52005e-22 1.45268e-39)
(0.000181161 3.34665e-05 -3.06383e-22 2.69108e-05 -1.45256e-22 1.58435e-39)
(0.000179095 2.24568e-05 1.74669e-23 2.52636e-05 7.37409e-24 4.6868e-42)
(0.000177256 1.19152e-05 0 2.44279e-05 0 0)
(0.000170852 -4.50027e-07 -3.4246e-23 2.42639e-05 -1.01943e-23 1.61209e-41)
(1.94197e-05 4.27371e-05 -6.78807e-24 9.67035e-05 -9.11434e-24 1.636e-40)
(2.44584e-05 4.91789e-05 6.81699e-23 0.000102407 8.14719e-23 1.12272e-38)
(2.99356e-05 5.56128e-05 -7.7193e-23 0.000107739 -8.2607e-23 1.03223e-38)
(3.62825e-05 6.21351e-05 -5.77985e-24 0.000111796 -5.6749e-24 3.94733e-41)