/*--------------------------------*- C++ -*----------------------------------*\
  =========                 |
  \\      /  F ield         | OpenFOAM: The Open Source CFD Toolbox
   \\    /   O peration     | Website:  https://openfoam.org
    \\  /    A nd           | Version:  12
     \\/     M anipulation  |
\*---------------------------------------------------------------------------*/
FoamFile
{
    format      ascii;
    class       volScalarField;
    location    "340";
    object      p;
}
// * * * * * * * * * * * * * * * * * * * * * * * * * * * * * * * * * * * * * //

dimensions      [0 2 -2 0 0 0 0];

internalField   nonuniform List<scalar> 
6750
(
0.0216343
0.0216122
0.0215828
0.0214193
0.0203908
0.0231526
0.0231162
0.0229888
0.0227229
0.0223636
0.0249454
0.0248863
0.0247557
0.0245576
0.0244046
0.0268261
0.0267321
0.0266079
0.0264675
0.0263906
0.0286932
0.0285553
0.0284212
0.0283086
0.0282699
0.030467
0.0302807
0.0301258
0.0300231
0.0300018
0.0320992
0.0318631
0.0316836
0.0315837
0.0315708
0.0335604
0.0332752
0.033071
0.032972
0.0329643
0.0348322
0.0345004
0.0342735
0.0341753
0.0341712
0.0359041
0.0355298
0.0352834
0.0351865
0.035185
0.0367729
0.0363615
0.0360994
0.0360044
0.0360048
0.0374418
0.0369994
0.0367261
0.0366335
0.036635
0.03792
0.037453
0.0371735
0.0370832
0.037085
0.0382218
0.0377358
0.0374565
0.0373674
0.0373685
0.0383601
0.0378684
0.0375945
0.0375029
0.0375019
0.0383601
0.0378685
0.0375945
0.0375029
0.0375019
0.0382218
0.0377358
0.0374566
0.0373675
0.0373686
0.0379201
0.0374531
0.0371736
0.0370833
0.0370851
0.0374419
0.0369996
0.0367263
0.0366336
0.0366351
0.0367731
0.0363617
0.0360996
0.0360046
0.036005
0.0359044
0.0355301
0.0352837
0.0351867
0.0351853
0.0348325
0.0345008
0.0342738
0.0341756
0.0341715
0.0335608
0.0332756
0.0330714
0.0329724
0.0329646
0.0320996
0.0318635
0.031684
0.0315841
0.0315713
0.0304675
0.0302812
0.0301263
0.0300236
0.0300023
0.0286937
0.0285558
0.0284218
0.0283092
0.0282705
0.0268267
0.0267327
0.0266085
0.0264681
0.0263913
0.0249461
0.0248869
0.0247564
0.0245583
0.0244053
0.0231534
0.0231169
0.0229895
0.0227236
0.0223643
0.0216351
0.021613
0.0215836
0.0214201
0.0203917
0.0142119
0.0148046
0.0162729
0.0173578
0.0181443
0.0187692
0.019259
0.0196249
0.0198949
0.0200793
0.0201413
0.020155
0.0200924
0.0199496
0.0197253
0.0194158
0.0190182
0.0185354
0.0179706
0.0173239
0.0165897
0.0158727
0.0151177
0.01434
0.0135596
0.0127893
0.0120387
0.0113225
0.0106507
0.00996801
0.0181216
0.0189173
0.019717
0.0201179
0.0203467
0.020488
0.0205439
0.0205234
0.0204555
0.0203373
0.0201276
0.0199405
0.0197351
0.0195143
0.0192766
0.019013
0.0187111
0.0183597
0.0179482
0.0174737
0.0169542
0.0163208
0.0156562
0.0149516
0.0142147
0.0134571
0.0126869
0.0119186
0.0111923
0.0104878
0.0206022
0.0207858
0.0211007
0.0212546
0.0213303
0.0213385
0.0212671
0.0211269
0.0209391
0.0206683
0.0203187
0.0199835
0.0196203
0.0192401
0.018849
0.0184466
0.0180298
0.0175933
0.0171314
0.0166395
0.0161163
0.0155614
0.014981
0.0143748
0.0137473
0.0131047
0.0124479
0.0117877
0.011211
0.0107941
0.0220451
0.0218209
0.0219497
0.0220325
0.0220416
0.0219742
0.0218253
0.0216119
0.0213426
0.0209483
0.0205021
0.0200428
0.0195412
0.0190142
0.0184736
0.017927
0.0173801
0.0168357
0.0162947
0.0157557
0.0152171
0.0146828
0.0141493
0.0136136
0.0130757
0.0125357
0.0119867
0.0114311
0.0109982
0.010916
0.0231356
0.0227635
0.0228101
0.0228221
0.0227478
0.022593
0.0223581
0.0220586
0.0216923
0.0211825
0.0206401
0.0200605
0.0194336
0.0187791
0.0181126
0.0174472
0.0167942
0.0161617
0.0155549
0.0149754
0.0144227
0.013896
0.0133919
0.0129056
0.0124334
0.0119714
0.011506
0.0110305
0.0107059
0.010928
0.0240827
0.0236715
0.0236533
0.0235852
0.0234249
0.0231837
0.0228624
0.0224734
0.0219997
0.0213846
0.0207423
0.020047
0.0193031
0.0185326
0.0177541
0.0169845
0.0162392
0.01553
0.0148646
0.0142468
0.0136765
0.0131511
0.0126662
0.0122154
0.0117927
0.0113917
0.0109935
0.010584
0.0103499
0.0108447
0.0249206
0.0245156
0.0244392
0.0242944
0.0240553
0.0237332
0.0233302
0.0228547
0.0222684
0.0215596
0.0208171
0.0200119
0.0191582
0.0182795
0.0173971
0.0165315
0.0157009
0.0149198
0.0141982
0.013541
0.0129487
0.0124182
0.0119439
0.011518
0.011133
0.0107803
0.010437
0.0100837
0.00992958
0.0106661
0.0256698
0.0253009
0.025174
0.0249576
0.0246443
0.0242444
0.0237634
0.0232034
0.0225041
0.0217115
0.020869
0.0199588
0.019001
0.0180205
0.0170408
0.0160853
0.0151746
0.0143253
0.0135489
0.0128515
0.012234
0.011693
0.0112219
0.0108122
0.010455
0.0101401
0.00984076
0.00953435
0.00945126
0.0103958
0.0263523
0.0260409
0.0258699
0.0255846
0.0251993
0.0247244
0.024168
0.023519
0.0227154
0.0218417
0.0209002
0.0198891
0.0188321
0.017755
0.0166834
0.0156429
0.0146562
0.0137416
0.0129118
0.0121737
0.0115285
0.0109727
0.0104991
0.0100983
0.00976053
0.00947425
0.00920937
0.00894168
0.00892158
0.0100397
0.026985
0.0267457
0.026535
0.0261823
0.0257268
0.0251805
0.024548
0.023802
0.0229087
0.0219505
0.0209126
0.0198045
0.0186521
0.0174823
0.0163229
0.0152011
0.0141415
0.0131636
0.0122812
0.0115018
0.0108268
0.0102526
0.00977153
0.00937363
0.00904844
0.00878308
0.00854454
0.00830853
0.00834464
0.00960394
0.0275802
0.0274232
0.0271765
0.0267568
0.0262315
0.0256156
0.0249066
0.0240598
0.023087
0.0220413
0.0209087
0.0197065
0.0184613
0.0172017
0.0159571
0.0147566
0.013626
0.012586
0.0116512
0.0108296
0.0101228
0.00952701
0.00903437
0.0086343
0.00831583
0.00806488
0.00784578
0.00763546
0.00772212
0.0090936
0.0281483
0.0280806
0.0278007
0.0273137
0.0267184
0.0260352
0.0252463
0.0243001
0.0232523
0.0221169
0.020891
0.0195961
0.0182599
0.0169122
0.0155842
0.0143063
0.0131055
0.0120037
0.0110161
0.010151
0.00941031
0.00879009
0.00828211
0.00787546
0.00755866
0.00731651
0.00711093
0.00692121
0.00705357
0.00851232
0.0286989
0.0287252
0.0284149
0.0278608
0.027197
0.0264421
0.0255659
0.0245325
0.0234062
0.0221799
0.0208612
0.0194743
0.0180477
0.0166126
0.0152017
0.0138468
0.0125759
0.0114118
0.0103702
0.00946005
0.0086831
0.00803547
0.00750864
0.00709137
0.00677176
0.00653345
0.00633621
0.00616265
0.00633653
0.00786195
0.0292417
0.0293636
0.0290258
0.0284043
0.0276716
0.0268433
0.025873
0.0247613
0.0235508
0.0222325
0.020821
0.0193418
0.0178245
0.0163016
0.0148074
0.0133747
0.0120327
0.0108049
0.00970767
0.00875014
0.00793432
0.0072562
0.00670704
0.0062753
0.00594871
0.00570973
0.00551617
0.00535482
0.00556654
0.00714219
0.0297841
0.0300053
0.0296414
0.028952
0.0281497
0.0272429
0.0261768
0.0249892
0.0236898
0.0222777
0.020772
0.019199
0.0175895
0.0159774
0.0143983
0.0128861
0.011471
0.0101773
0.00902197
0.00801432
0.00715653
0.00644454
0.00586941
0.00541938
0.00508178
0.00483782
0.00464357
0.0044908
0.00473707
0.00635035
0.0303334
0.0306616
0.0302742
0.0295164
0.0286374
0.0276414
0.0264887
0.0252194
0.0238264
0.022318
0.0207155
0.0190461
0.0173418
0.0156379
0.0139711
0.0123766
0.0108856
0.00952288
0.00830606
0.0072448
0.0063414
0.00559174
0.00498674
0.00451439
0.00416167
0.00390849
0.0037093
0.00356157
0.00383939
0.00548104
0.0308996
0.0313449
0.0309355
0.0301061
0.029144
0.0280491
0.0268154
0.0254554
0.0239643
0.0223559
0.0206528
0.018883
0.01708
0.0152803
0.013522
0.0118413
0.0102702
0.00883434
0.00755185
0.00643273
0.0054794
0.00468773
0.00404848
0.00354947
0.00317728
0.00291047
0.00270202
0.00255574
0.00286227
0.00452585
0.0314997
0.0320688
0.0316391
0.0307284
0.0296734
0.0284813
0.0271615
0.0257026
0.0241077
0.0223939
0.0205847
0.0187091
0.016802
0.0149012
0.0130461
0.0112738
0.00961743
0.00810327
0.00674992
0.00556777
0.0045594
0.00372066
0.0030422
0.00251168
0.00211526
0.00183007
0.00160775
0.00145909
0.00179151
0.00347285
0.0321572
0.0328431
0.0323956
0.031398
0.0302354
0.0289496
0.027532
0.0259661
0.0242606
0.0224344
0.0205118
0.0185233
0.0165049
0.0144961
0.0125373
0.0106668
0.00891849
0.0073195
0.00588895
0.00463756
0.00356808
0.00267637
0.00195296
0.00138538
0.000959364
0.000650505
0.000409214
0.000253903
0.000609281
0.00230587
0.032891
0.0336873
0.0332228
0.0321275
0.0308479
0.0294629
0.0279356
0.0262533
0.0244279
0.0224797
0.0204342
0.0183234
0.0161847
0.0140589
0.0119877
0.0100106
0.00816221
0.00647048
0.00495503
0.00362695
0.00248915
0.0015375
0.000762454
0.00015138
-0.000310443
-0.000649024
-0.000915086
-0.00108199
-0.00070696
0.00100348
0.0337269
0.0346347
0.0341418
0.0329287
0.0315337
0.0300344
0.0283837
0.0265724
0.0246147
0.022532
0.0203513
0.0181062
0.0158355
0.0135815
0.0113871
0.00929285
0.00733437
0.00554023
0.00393061
0.00251691
0.00130221
0.000282389
-0.000552215
-0.00121435
-0.00171926
-0.00209464
-0.00239227
-0.00257665
-0.00218595
-0.00046257
0.0347057
0.0357068
0.035173
0.0338369
0.0323144
0.0306802
0.028889
0.0269325
0.0248261
0.0225927
0.0202611
0.0178663
0.0154489
0.0130525
0.0107214
0.00849713
0.00641625
0.00450799
0.002793
0.00128296
-1.8895e-05
-0.00111673
-0.00202031
-0.00274252
-0.00329918
-0.00371979
-0.0040571
-0.00426616
-0.00386487
-0.00212974
0.035874
0.0369488
0.0363568
0.0348892
0.0332138
0.0314211
0.0294674
0.0273441
0.0250676
0.0226624
0.0201593
0.0175952
0.0150124
0.0124559
0.00997116
0.00760099
0.00538265
0.00334598
0.00151202
-0.000107287
-0.00150867
-0.00269634
-0.0036802
-0.00447334
-0.00509219
-0.0055682
-0.00595502
-0.00619775
-0.00579276
-0.00404835
0.0372997
0.0384209
0.0377537
0.0361266
0.0342653
0.0322838
0.0301386
0.0278195
0.0253441
0.0227395
0.0200384
0.0172797
0.0145074
0.0117682
0.00910885
0.00657296
0.00419857
0.00201596
4.64353e-05
-0.00169794
-0.00321389
-0.00450578
-0.00558369
-0.00646095
-0.00715475
-0.00769857
-0.00814696
-0.00843474
-0.00803578
-0.00628736
0.0390955
0.0402171
0.0394355
0.037604
0.035515
0.0333042
0.0309271
0.0283726
0.0256601
0.022819
0.0198847
0.0168982
0.0139055
0.0109548
0.00809397
0.00536751
0.00281386
0.000463517
-0.00166212
-0.00355106
-0.00520017
-0.00661403
-0.00780298
-0.00878068
-0.00956518
-0.0101921
-0.010717
-0.0110645
-0.0106859
-0.0089443
0.0413888
0.0424611
0.0415021
0.039405
0.0370293
0.0345314
0.0318657
0.0290206
0.0260176
0.0228895
0.0196744
0.0164158
0.0131617
0.00996186
0.00686511
0.00391627
0.00115386
-0.00139178
-0.00369952
-0.00575766
-0.00756338
-0.00912156
-0.0104429
-0.0115414
-0.012436
-0.0131648
-0.0137843
-0.0142099
-0.0138732
-0.0121597
0.0444353
0.0453467
0.0441095
0.0416567
0.0389078
0.036037
0.0329992
0.029783
0.0264134
0.0229266
0.0193644
0.0157731
0.0122026
0.00870383
0.00532584
0.00211317
-0.000896399
-0.0036734
-0.00619754
-0.00845776
-0.0104517
-0.0121845
-0.0136671
-0.0149139
-0.0159448
-0.0167996
-0.0175357
-0.0180629
-0.0178012
-0.0161566
0.0486175
0.0491564
0.0474653
0.0445198
0.0412717
0.0379045
0.0343744
0.0306727
0.0268286
0.0228835
0.018883
0.0148766
0.0109162
0.00705298
0.00333529
-0.000193971
-0.00349911
-0.00655283
-0.00933658
-0.0118406
-0.0140636
-0.0160113
-0.0176945
-0.0191278
-0.0203317
-0.0213466
-0.02223
-0.0228918
-0.0227638
-0.0212735
0.0548076
0.0545995
0.0521634
0.0485171
0.0445635
0.0404749
0.0362201
0.0318043
0.0272684
0.0226633
0.0180419
0.0134582
0.00896533
0.00461353
0.000447984
-0.00349264
-0.00717725
-0.0105827
-0.013693
-0.0164989
-0.0190024
-0.0212222
-0.0231542
-0.0248129
-0.0262194
-0.0274119
-0.0284434
-0.0292395
-0.0293082
-0.0281388
0.0656151
0.0637202
0.0597294
0.0548526
0.049735
0.0444729
0.039063
0.0335406
0.0279636
0.0223925
0.0168846
0.011493
0.0062655
0.00124349
-0.00353868
-0.00805365
-0.0122806
-0.0162048
-0.0198181
-0.023118
-0.0261008
-0.0287542
-0.0311039
-0.0331584
-0.0349286
-0.0364403
-0.0377386
-0.0388128
-0.0393671
-0.0388473
0.0178784
0.0188159
0.0205634
0.0219448
0.0230982
0.0241702
0.0251945
0.0261801
0.0271368
0.0280742
0.0290005
0.0299234
0.0308512
0.0317923
0.0327552
0.0337502
0.0347902
0.0358915
0.037073
0.038356
0.0397681
0.041349
0.043146
0.0452251
0.0476752
0.0506316
0.0542794
0.0588316
0.0645155
0.0718526
0.0221982
0.0231734
0.0242976
0.0252327
0.0260656
0.0268582
0.0276221
0.0283616
0.0290839
0.0297971
0.030509
0.0312278
0.0319618
0.0327198
0.0335116
0.0343487
0.035245
0.0362174
0.0372863
0.0384763
0.0398198
0.0413599
0.0431534
0.0452782
0.0478441
0.0510138
0.0550217
0.0601899
0.0670057
0.0760574
0.0245054
0.0253737
0.0262156
0.026966
0.0276932
0.028414
0.0291251
0.0298274
0.0305259
0.0312263
0.0319348
0.032658
0.0334032
0.0341785
0.0349935
0.0358597
0.0367909
0.0378047
0.0389222
0.0401704
0.0415846
0.0432117
0.0451147
0.047381
0.0501343
0.0535541
0.0579065
0.0635703
0.0711965
0.0814766
0.0265171
0.0272766
0.0280034
0.0286742
0.0293378
0.030004
0.0306718
0.031344
0.0320256
0.0327221
0.0334391
0.0341828
0.0349603
0.0357797
0.0366505
0.0375845
0.038596
0.0397027
0.040927
0.0422975
0.0438516
0.0456392
0.0477274
0.0502094
0.0532167
0.0569386
0.0616558
0.0677639
0.0760047
0.0871159
0.0283942
0.0290611
0.0296985
0.0302985
0.0309024
0.03152
0.032152
0.0328012
0.0334719
0.0341687
0.0348969
0.0356622
0.0364718
0.0373336
0.0382577
0.039256
0.0403435
0.0415388
0.0428654
0.0443537
0.0460432
0.0479864
0.0502542
0.0529442
0.0561936
0.0601994
0.0652523
0.0717587
0.0805442
0.0924042
0.0301081
0.0306931
0.0312548
0.0317955
0.0323523
0.032934
0.0335412
0.0341761
0.0348424
0.0355442
0.0362864
0.0370747
0.0379159
0.0388181
0.0397914
0.0408483
0.0420041
0.0432781
0.0446951
0.0462867
0.0480943
0.0501727
0.0525958
0.055465
0.0589225
0.0631717
0.0685129
0.0753656
0.084637
0.0972048
0.031656
0.032168
0.0326656
0.0331579
0.033678
0.0342329
0.0348228
0.0354495
0.0361161
0.0368265
0.0375851
0.0383974
0.0392701
0.0402113
0.0412313
0.0423426
0.0435611
0.0449068
0.0464051
0.0480887
0.0500006
0.0521974
0.0547553
0.0577789
0.0614143
0.0658705
0.0714566
0.0786057
0.0882914
0.101487
0.0330333
0.0334795
0.0339223
0.0343752
0.0348664
0.0354012
0.0359793
0.036602
0.0372721
0.037993
0.0387688
0.0396048
0.0405075
0.0414852
0.042548
0.0437089
0.044984
0.0463936
0.0479641
0.049729
0.0517323
0.0540321
0.0567066
0.0598627
0.0636498
0.0682814
0.0740744
0.081474
0.0914991
0.105227
0.0342313
0.0346188
0.0350149
0.035436
0.0359049
0.0364249
0.0369952
0.0376169
0.0382922
0.0390241
0.0398166
0.0406746
0.0416047
0.042615
0.0437158
0.0449202
0.0462445
0.0477097
0.0493424
0.051177
0.0532583
0.0556456
0.0584187
0.0616861
0.0656
0.0703777
0.0763424
0.0839496
0.0942429
0.108409
0.0352433
0.035579
0.0359366
0.0363326
0.0367846
0.0372938
0.0378592
0.0384816
0.0391628
0.0399053
0.0407129
0.0415904
0.0425443
0.0435827
0.0447159
0.0459571
0.047323
0.0488347
0.0505193
0.0524117
0.0545575
0.057017
0.0598708
0.0632292
0.0672464
0.0721423
0.0782458
0.0860208
0.0965181
0.111039
0.0360663
0.0363581
0.0366848
0.0370617
0.0375011
0.0380027
0.0385653
0.0391892
0.039876
0.0406279
0.0414485
0.0423424
0.0433161
0.0443776
0.0455373
0.0468085
0.048208
0.0497572
0.0514835
0.0534222
0.0556195
0.0581362
0.061054
0.0644843
0.0685827
0.0735714
0.0797836
0.0876901
0.098335
0.113138
0.0367024
0.0369588
0.037262
0.037625
0.0380553
0.0385517
0.0391127
0.0397385
0.0404301
0.0411898
0.0420207
0.0429277
0.0439169
0.0449964
0.0461767
0.047471
0.0488964
0.0504743
0.0522325
0.0542066
0.0564431
0.0590033
0.0619695
0.065454
0.0696136
0.074672
0.0809656
0.088971
0.0997157
0.114739
0.0371587
0.0373889
0.0376753
0.0380287
0.038453
0.038946
0.0395063
0.0401337
0.0408291
0.0415945
0.0424332
0.0433497
0.0443501
0.0454427
0.0466378
0.0479488
0.0493927
0.0509913
0.0527722
0.0547715
0.0570358
0.0596269
0.0626274
0.0661503
0.070353
0.0754604
0.0818111
0.0898863
0.100691
0.115882
0.037447
0.0376601
0.037936
0.0382836
0.0387042
0.0391953
0.0397553
0.0403839
0.0410818
0.0418511
0.0426948
0.0436174
0.0446251
0.045726
0.0469306
0.0482522
0.049708
0.0513196
0.0531151
0.0551303
0.0574122
0.0600228
0.063045
0.066592
0.0708219
0.0759599
0.0823466
0.0904655
0.101298
0.11661
0.0375825
0.0377872
0.0380582
0.0384031
0.0388221
0.0393123
0.0398723
0.0405015
0.0412008
0.0419719
0.042818
0.0437436
0.0447549
0.0458598
0.0470689
0.0483957
0.0498571
0.051475
0.0532773
0.0553002
0.0575906
0.0602105
0.063243
0.0668015
0.0710444
0.076197
0.0826007
0.0907403
0.10158
0.116963
0.0375825
0.0377872
0.0380582
0.0384031
0.0388221
0.0393124
0.0398723
0.0405015
0.0412008
0.0419719
0.0428181
0.0437437
0.0447549
0.0458598
0.0470689
0.0483957
0.0498571
0.051475
0.0532773
0.0553002
0.0575906
0.0602105
0.063243
0.0668015
0.0710444
0.076197
0.0826008
0.0907404
0.10158
0.116963
0.0374471
0.0376601
0.0379361
0.0382837
0.0387043
0.0391954
0.0397553
0.0403839
0.0410819
0.0418512
0.0426948
0.0436175
0.0446252
0.0457261
0.0469307
0.0482523
0.049708
0.0513197
0.0531151
0.0551303
0.0574123
0.0600229
0.063045
0.0665921
0.070822
0.07596
0.0823467
0.0904656
0.101298
0.116611
0.0371588
0.037389
0.0376754
0.0380288
0.0384531
0.0389461
0.0395064
0.0401338
0.0408292
0.0415946
0.0424333
0.0433498
0.0443502
0.0454428
0.0466379
0.0479489
0.0493928
0.0509914
0.0527723
0.0547716
0.0570359
0.059627
0.0626275
0.0661504
0.0703531
0.0754605
0.0818113
0.0898864
0.100691
0.115882
0.0367025
0.036959
0.0372621
0.0376251
0.0380554
0.0385518
0.0391129
0.0397386
0.0404302
0.0411899
0.0420209
0.0429278
0.043917
0.0449965
0.0461768
0.0474711
0.0488965
0.0504745
0.0522327
0.0542068
0.0564432
0.0590034
0.0619697
0.0654542
0.0696138
0.0746722
0.0809658
0.0889712
0.0997159
0.114739
0.0360665
0.0363583
0.036685
0.0370619
0.0375012
0.0380028
0.0385655
0.0391894
0.0398762
0.0406281
0.0414486
0.0423426
0.0433163
0.0443777
0.0455375
0.0468087
0.0482082
0.0497573
0.0514836
0.0534224
0.0556197
0.0581364
0.0610542
0.0644845
0.0685829
0.0735717
0.0797838
0.0876904
0.0983353
0.113139
0.0352436
0.0355793
0.0359368
0.0363329
0.0367848
0.037294
0.0378595
0.0384818
0.039163
0.0399055
0.0407131
0.0415906
0.0425445
0.0435829
0.0447161
0.0459573
0.0473232
0.0488349
0.0505195
0.0524119
0.0545578
0.0570172
0.059871
0.0632295
0.0672466
0.0721426
0.0782462
0.0860212
0.0965185
0.11104
0.0342317
0.0346191
0.0350152
0.0354363
0.0359052
0.0364251
0.0369955
0.0376171
0.0382925
0.0390244
0.0398168
0.0406749
0.0416049
0.0426152
0.043716
0.0449204
0.0462448
0.04771
0.0493427
0.0511772
0.0532586
0.0556459
0.058419
0.0616864
0.0656004
0.070378
0.0763428
0.08395
0.0942434
0.10841
0.0330336
0.0334799
0.0339226
0.0343755
0.0348667
0.0354015
0.0359796
0.0366023
0.0372724
0.0379933
0.0387691
0.0396051
0.0405078
0.0414855
0.0425483
0.0437092
0.0449842
0.0463939
0.0479644
0.0497293
0.0517326
0.0540325
0.056707
0.0598631
0.0636502
0.0682818
0.0740749
0.0814745
0.0914996
0.105227
0.0316565
0.0321684
0.032666
0.0331583
0.0336784
0.0342333
0.0348231
0.0354498
0.0361165
0.0368268
0.0375854
0.0383977
0.0392704
0.0402116
0.0412316
0.0423429
0.0435614
0.0449071
0.0464054
0.0480891
0.050001
0.0521978
0.0547557
0.0577793
0.0614147
0.0658709
0.0714571
0.0786063
0.088292
0.101488
0.0301086
0.0306936
0.0312553
0.0317959
0.0323527
0.0329344
0.0335416
0.0341765
0.0348428
0.0355446
0.0362868
0.0370751
0.0379162
0.0388184
0.0397918
0.0408486
0.0420044
0.0432785
0.0446955
0.0462871
0.0480947
0.0501731
0.0525962
0.0554654
0.0589229
0.0631722
0.0685134
0.0753662
0.0846377
0.0972056
0.0283947
0.0290616
0.029699
0.030299
0.0309028
0.0315204
0.0321524
0.0328017
0.0334723
0.0341691
0.0348972
0.0356626
0.0364722
0.037334
0.0382581
0.0392564
0.0403439
0.0415392
0.0428659
0.0443541
0.0460436
0.0479868
0.0502546
0.0529446
0.0561941
0.0602
0.0652529
0.0717593
0.080545
0.0924051
0.0265177
0.0272771
0.0280039
0.0286748
0.0293383
0.0300045
0.0306723
0.0313445
0.0320261
0.0327225
0.0334395
0.0341832
0.0349607
0.0357801
0.0366509
0.0375849
0.0385964
0.0397031
0.0409274
0.0422979
0.0438521
0.0456396
0.0477279
0.0502099
0.0532173
0.0569392
0.0616565
0.0677646
0.0760055
0.0871169
0.0245061
0.0253743
0.0262162
0.0269665
0.0276938
0.0284145
0.0291256
0.0298279
0.0305264
0.0312268
0.0319353
0.0326584
0.0334036
0.0341789
0.034994
0.0358601
0.0367914
0.0378051
0.0389227
0.0401709
0.0415851
0.0432122
0.0451152
0.0473815
0.0501348
0.0535547
0.0579072
0.0635711
0.0711974
0.0814776
0.022199
0.0231741
0.0242983
0.0252333
0.0260662
0.0268588
0.0276227
0.0283621
0.0290844
0.0297976
0.0305095
0.0312283
0.0319623
0.0327203
0.033512
0.0343491
0.0352454
0.0362179
0.0372868
0.0384768
0.0398202
0.0413604
0.0431539
0.0452788
0.0478447
0.0510144
0.0550225
0.0601907
0.0670066
0.0760584
0.0178793
0.0188167
0.0205642
0.0219456
0.023099
0.0241709
0.0251952
0.0261807
0.0271374
0.0280748
0.029001
0.0299239
0.0308517
0.0317928
0.0327557
0.0337507
0.0347907
0.035892
0.0370734
0.0383564
0.0397686
0.0413495
0.0431466
0.0452257
0.0476758
0.0506322
0.0542801
0.0588324
0.0645164
0.0718537
0.0656163
0.0637214
0.0597306
0.0548538
0.0497363
0.0444742
0.0390643
0.0335419
0.027965
0.0223938
0.0168859
0.0114943
0.00626676
0.00124473
-0.00353748
-0.00805248
-0.0122795
-0.0162038
-0.0198171
-0.023117
-0.0260998
-0.0287533
-0.0311031
-0.0331576
-0.0349279
-0.0364396
-0.0377379
-0.0388121
-0.0393666
-0.0388468
0.0548086
0.0546005
0.0521644
0.0485182
0.0445645
0.040476
0.0362212
0.0318055
0.0272696
0.0226644
0.018043
0.0134593
0.00896644
0.00461462
0.000449054
-0.0034916
-0.00717625
-0.0105817
-0.013692
-0.016498
-0.0190015
-0.0212214
-0.0231534
-0.0248121
-0.0262187
-0.0274113
-0.0284428
-0.029239
-0.0293076
-0.0281383
0.0486184
0.0491573
0.0474662
0.0445207
0.0412727
0.0379054
0.0343754
0.0306737
0.0268297
0.0228845
0.018884
0.0148777
0.0109172
0.00705396
0.00333625
-0.000193029
-0.0034982
-0.00655194
-0.00933573
-0.0118398
-0.0140628
-0.0160106
-0.0176938
-0.0191271
-0.020331
-0.0213461
-0.0222294
-0.0228913
-0.0227633
-0.021273
0.0444361
0.0453475
0.0441103
0.0416575
0.0389087
0.0360379
0.0330001
0.0297839
0.0264143
0.0229276
0.0193653
0.015774
0.0122035
0.00870474
0.00532673
0.00211404
-0.000895556
-0.00367259
-0.00619676
-0.00845701
-0.010451
-0.0121838
-0.0136664
-0.0149133
-0.0159442
-0.016799
-0.0175352
-0.0180624
-0.0178008
-0.0161562
0.0413895
0.0424618
0.0415029
0.0394057
0.0370301
0.0345322
0.0318665
0.0290214
0.0260185
0.0228904
0.0196752
0.0164166
0.0131625
0.00996271
0.00686594
0.00391708
0.00115465
-0.00139101
-0.00369879
-0.00575696
-0.00756271
-0.00912092
-0.0104423
-0.0115408
-0.0124355
-0.0131643
-0.0137838
-0.0142095
-0.0138727
-0.0121593
0.0390962
0.0402178
0.0394362
0.0376047
0.0355157
0.0333049
0.0309279
0.0283734
0.0256609
0.0228198
0.0198855
0.016899
0.0139063
0.0109556
0.00809475
0.00536827
0.0028146
0.000464235
-0.00166143
-0.0035504
-0.00519953
-0.00661342
-0.0078024
-0.00878013
-0.00956466
-0.0101916
-0.0107165
-0.011064
-0.0106855
-0.00894389
0.0373003
0.0384215
0.0377543
0.0361273
0.034266
0.0322845
0.0301393
0.0278202
0.0253449
0.0227403
0.0200392
0.0172805
0.0145082
0.011769
0.00910959
0.00657369
0.00419928
0.00201664
4.7093e-05
-0.0016973
-0.00321328
-0.0045052
-0.00558314
-0.00646042
-0.00715425
-0.00769809
-0.00814651
-0.00843431
-0.00803537
-0.00628697
0.0358746
0.0369494
0.0363574
0.0348898
0.0332144
0.0314217
0.0294681
0.0273448
0.0250683
0.0226632
0.0201601
0.017596
0.0150131
0.0124566
0.00997187
0.00760168
0.00538333
0.00334663
0.00151266
-0.000106681
-0.00150809
-0.00269579
-0.00367967
-0.00447283
-0.00509171
-0.00556774
-0.00595458
-0.00619733
-0.00579237
-0.00404797
0.0347063
0.0357074
0.0351735
0.0338375
0.032315
0.0306809
0.0288896
0.0269332
0.0248268
0.0225935
0.0202618
0.017867
0.0154496
0.0130532
0.0107221
0.0084978
0.0064169
0.00450862
0.00279361
0.00128355
-1.83334e-05
-0.0011162
-0.00201979
-0.00274203
-0.00329871
-0.00371935
-0.00405667
-0.00426575
-0.00386448
-0.00212937
0.0337274
0.0346352
0.0341424
0.0329293
0.0315343
0.030035
0.0283843
0.026573
0.0246154
0.0225327
0.020352
0.0181068
0.0158362
0.0135822
0.0113878
0.00929349
0.007335
0.00554084
0.0039312
0.00251748
0.00130276
0.000282912
-0.000551715
-0.00121388
-0.0017188
-0.00209421
-0.00239185
-0.00257625
-0.00218556
-0.000462206
0.0328915
0.0336878
0.0332233
0.032128
0.0308485
0.0294635
0.0279363
0.0262539
0.0244286
0.0224804
0.0204349
0.018324
0.0161853
0.0140596
0.0119884
0.0100112
0.00816282
0.00647107
0.00495561
0.0036275
0.00248968
0.00153801
0.000762945
0.000151849
-0.000309995
-0.000648595
-0.000914674
-0.00108159
-0.000706581
0.00100384
0.0321577
0.0328436
0.0323961
0.0313986
0.030236
0.0289502
0.0275326
0.0259667
0.0242613
0.022435
0.0205124
0.0185239
0.0165055
0.0144967
0.0125379
0.0106674
0.00891908
0.00732008
0.00588952
0.0046381
0.0035686
0.00267687
0.00195345
0.00138585
0.000959808
0.00065093
0.000409622
0.000254294
0.000609657
0.00230623
0.0315002
0.0320693
0.0316396
0.030729
0.029674
0.0284819
0.0271621
0.0257032
0.0241083
0.0223945
0.0205853
0.0187098
0.0168026
0.0149018
0.0130467
0.0112744
0.00961802
0.00810384
0.00675048
0.0055683
0.00455991
0.00372116
0.00304268
0.00251214
0.00211571
0.0018305
0.00160815
0.00145948
0.00179189
0.0034732
0.0309002
0.0313455
0.0309361
0.0301066
0.0291446
0.0280497
0.026816
0.025456
0.0239649
0.0223565
0.0206534
0.0188837
0.0170806
0.0152809
0.0135226
0.0118419
0.0102707
0.0088349
0.0075524
0.00643325
0.00547991
0.00468822
0.00404895
0.00354993
0.00317772
0.0029109
0.00270243
0.00255613
0.00286265
0.00452621
0.0303339
0.0306622
0.0302748
0.029517
0.028638
0.027642
0.0264893
0.02522
0.023827
0.0223186
0.0207161
0.0190468
0.0173424
0.0156385
0.0139717
0.0123772
0.0108862
0.00952344
0.00830659
0.00724532
0.0063419
0.00559223
0.00498721
0.00451485
0.00416211
0.00390891
0.00370971
0.00356197
0.00383977
0.00548139
0.0297846
0.0300059
0.0296419
0.0289525
0.0281503
0.0272435
0.0261774
0.0249898
0.0236903
0.0222782
0.0207726
0.0191996
0.0175901
0.015978
0.0143988
0.0128866
0.0114716
0.0101779
0.0090225
0.00801484
0.00715703
0.00644502
0.00586988
0.00541983
0.00508222
0.00483825
0.00464399
0.0044912
0.00473745
0.0063507
0.0292422
0.0293642
0.0290263
0.0284049
0.0276721
0.0268438
0.0258735
0.0247619
0.0235514
0.0222331
0.0208216
0.0193424
0.017825
0.0163022
0.014808
0.0133752
0.0120332
0.0108054
0.0097082
0.00875066
0.00793482
0.00725668
0.0067075
0.00627576
0.00594916
0.00571016
0.00551658
0.00535523
0.00556693
0.00714255
0.0286994
0.0287257
0.0284155
0.0278614
0.0271976
0.0264427
0.0255664
0.0245331
0.0234068
0.0221805
0.0208618
0.0194749
0.0180483
0.0166132
0.0152023
0.0138473
0.0125765
0.0114123
0.0103708
0.00946056
0.0086836
0.00803595
0.00750911
0.00709182
0.0067722
0.00653388
0.00633663
0.00616306
0.00633692
0.00786232
0.0281488
0.0280811
0.0278013
0.0273142
0.026719
0.0260357
0.0252469
0.0243007
0.0232529
0.0221175
0.0208916
0.0195967
0.0182605
0.0169128
0.0155847
0.0143068
0.0131061
0.0120042
0.0110166
0.0101515
0.00941081
0.00879057
0.00828258
0.00787591
0.0075591
0.00731694
0.00711135
0.00692162
0.00705397
0.00851269
0.0275808
0.0274237
0.027177
0.0267574
0.026232
0.0256162
0.0249072
0.0240604
0.0230876
0.0220419
0.0209093
0.019707
0.0184619
0.0172022
0.0159577
0.0147572
0.0136265
0.0125865
0.0116517
0.0108301
0.0101233
0.00952749
0.00903484
0.00863476
0.00831627
0.00806531
0.00784621
0.00763588
0.00772253
0.00909397
0.0269855
0.0267463
0.0265356
0.0261829
0.0257274
0.0251811
0.0245485
0.0238026
0.0229093
0.0219511
0.0209131
0.0198051
0.0186527
0.0174829
0.0163234
0.0152017
0.014142
0.0131641
0.0122817
0.0115023
0.0108273
0.0102531
0.009772
0.00937409
0.00904889
0.00878352
0.00854497
0.00830895
0.00834505
0.00960433
0.0263529
0.0260415
0.0258704
0.0255852
0.0251999
0.024725
0.0241685
0.0235195
0.022716
0.0218423
0.0209008
0.0198897
0.0188327
0.0177555
0.016684
0.0156435
0.0146568
0.0137421
0.0129124
0.0121742
0.011529
0.0109732
0.0104996
0.0100987
0.00976098
0.00947469
0.00920981
0.00894211
0.008922
0.0100401
0.0256704
0.0253015
0.0251746
0.0249582
0.0246449
0.024245
0.023764
0.023204
0.0225047
0.0217121
0.0208696
0.0199593
0.0190016
0.018021
0.0170414
0.0160858
0.0151751
0.0143258
0.0135494
0.012852
0.0122345
0.0116935
0.0112224
0.0108127
0.0104554
0.0101405
0.0098412
0.00953478
0.00945169
0.0103962
0.0249212
0.0245162
0.0244398
0.024295
0.0240559
0.0237338
0.0233308
0.0228553
0.022269
0.0215602
0.0208177
0.0200125
0.0191587
0.0182801
0.0173977
0.016532
0.0157014
0.0149204
0.0141987
0.0135415
0.0129492
0.0124187
0.0119443
0.0115184
0.0111334
0.0107808
0.0104375
0.0100841
0.00993002
0.0106665
0.0240833
0.0236722
0.023654
0.0235859
0.0234256
0.0231843
0.0228631
0.022474
0.0220003
0.0213852
0.0207429
0.0200476
0.0193037
0.0185332
0.0177546
0.0169851
0.0162398
0.0155305
0.0148651
0.0142473
0.013677
0.0131516
0.0126667
0.0122159
0.0117932
0.0113921
0.010994
0.0105845
0.0103503
0.0108451
0.0231363
0.0227642
0.0228108
0.0228228
0.0227485
0.0225937
0.0223587
0.0220593
0.0216929
0.0211831
0.0206407
0.0200611
0.0194341
0.0187797
0.0181132
0.0174478
0.0167947
0.0161622
0.0155554
0.0149759
0.0144232
0.0138965
0.0133924
0.0129061
0.0124339
0.0119719
0.0115065
0.011031
0.0107064
0.0109285
0.0220458
0.0218216
0.0219504
0.0220332
0.0220423
0.0219749
0.021826
0.0216125
0.0213432
0.0209489
0.0205027
0.0200433
0.0195418
0.0190148
0.0184741
0.0179276
0.0173806
0.0168362
0.0162952
0.0157562
0.0152176
0.0146833
0.0141498
0.0136141
0.0130762
0.0125362
0.0119872
0.0114316
0.0109986
0.0109164
0.020603
0.0207866
0.0211015
0.0212553
0.021331
0.0213392
0.0212678
0.0211275
0.0209398
0.0206689
0.0203193
0.0199841
0.0196209
0.0192407
0.0188495
0.0184471
0.0180303
0.0175938
0.0171319
0.01664
0.0161168
0.0155618
0.0149815
0.0143753
0.0137478
0.0131052
0.0124483
0.0117882
0.0112115
0.0107945
0.0181225
0.0189181
0.0197178
0.0201186
0.0203475
0.0204888
0.0205446
0.0205241
0.0204562
0.020338
0.0201282
0.0199411
0.0197357
0.0195149
0.0192772
0.0190136
0.0187116
0.0183602
0.0179487
0.0174742
0.0169547
0.0163213
0.0156567
0.0149521
0.0142152
0.0134576
0.0126874
0.0119191
0.0111928
0.0104883
0.0142129
0.0148056
0.0162738
0.0173587
0.0181451
0.01877
0.0192597
0.0196256
0.0198956
0.02008
0.0201419
0.0201556
0.020093
0.0199502
0.0197259
0.0194164
0.0190187
0.0185359
0.0179712
0.0173244
0.0165902
0.0158732
0.0151182
0.0143405
0.0135601
0.0127898
0.0120392
0.0113231
0.0106513
0.00996858
-0.0405252
-0.0325819
-0.0265838
-0.0217132
-0.0176928
-0.0143459
-0.0115224
-0.00911306
-0.00703467
-0.00522399
-0.00363238
-0.00222185
-0.000962411
0.000170001
0.00119487
0.00212817
0.00298303
0.00377026
0.0044986
0.00517491
0.00580416
0.00638931
0.00693128
0.00742878
0.00787791
0.00827035
0.00859619
0.00885314
0.00904286
0.00908896
-0.0406764
-0.0326059
-0.0263131
-0.0213126
-0.0172164