/*--------------------------------*- C++ -*----------------------------------*\
  =========                 |
  \\      /  F ield         | OpenFOAM: The Open Source CFD Toolbox
   \\    /   O peration     | Website:  https://openfoam.org
    \\  /    A nd           | Version:  12
     \\/     M anipulation  |
\*---------------------------------------------------------------------------*/
FoamFile
{
    format      ascii;
    class       surfaceScalarField;
    location    "340";
    object      phi;
}
// * * * * * * * * * * * * * * * * * * * * * * * * * * * * * * * * * * * * * //

dimensions      [0 3 -1 0 0 0 0];

internalField   nonuniform List<scalar> 
13275
(
0.369023
-0.00462584
0.369481
-0.0114853
0.369794
-0.015406
0.369909
-0.0173604
-0.0180304
0.369849
0.351098
-0.00489893
0.35146
-0.0118474
0.351681
-0.0156269
0.351643
-0.0173216
-0.0176328
0.351245
0.334002
-0.00502183
0.334077
-0.0119231
0.333968
-0.0155178
0.333634
-0.0169875
-0.0170942
0.333096
0.317721
-0.0049924
0.317511
-0.0117124
0.317103
-0.01511
0.316533
-0.0164174
-0.0164199
0.315858
0.302245
-0.00483562
0.30179
-0.0112573
0.301125
-0.0144449
0.300336
-0.0156286
-0.0155831
0.299499
0.287534
-0.00457543
0.286872
-0.0105954
0.285978
-0.0135508
0.284977
-0.0146276
-0.0145641
0.283958
0.273546
-0.00422913
0.272706
-0.00975555
0.271606
-0.0124508
0.270403
-0.013424
-0.0133583
0.269197
0.260244
-0.00381046
0.259251
-0.00876341
0.25797
-0.0111696
0.256582
-0.0120356
-0.0119758
0.255199
0.247593
-0.00333253
0.246476
-0.00764604
0.245043
-0.00973697
0.243497
-0.0104894
-0.0104391
0.24196
0.235564
-0.00280907
0.234351
-0.00643304
0.232802
-0.0081879
0.231133
-0.00882034
-0.00878041
0.229475
0.224129
-0.00225448
0.222852
-0.00515581
0.221225
-0.00656068
0.219472
-0.00706803
-0.00703809
0.21773
0.213259
-0.00168319
0.211949
-0.00384576
0.210283
-0.00489417
0.208488
-0.00527341
-0.00525239
0.206702
0.202927
-0.00110909
0.201614
-0.00253239
0.199945
-0.00322514
0.198147
-0.00347548
-0.0034621
0.196357
0.193107
-0.000544735
0.191817
-0.00124216
0.190177
-0.00158587
0.18841
-0.00170852
-0.00170182
0.18665
0.183771
-1.11506e-07
0.18253
-2.63207e-07
0.180944
-3.41376e-07
0.179236
-3.68814e-07
-3.66262e-07
0.177534
0.183771
0.000544512
0.18253
0.00124163
0.180944
0.00158519
0.179236
0.00170778
0.00170109
0.177534
0.193107
0.00110886
0.191817
0.00253186
0.190177
0.00322446
0.18841
0.00347475
0.00346137
0.18665
0.202927
0.00168297
0.201614
0.00384524
0.199945
0.00489349
0.198147
0.00527268
0.00525166
0.196357
0.213259
0.00225426
0.211949
0.00515529
0.210283
0.00656
0.208488
0.0070673
0.00703737
0.206702
0.224129
0.00280885
0.222852
0.00643252
0.221225
0.00818723
0.219472
0.00881962
0.00877969
0.21773
0.235564
0.00333231
0.234351
0.00764552
0.232802
0.00973631
0.231133
0.0104887
0.0104383
0.229475
0.247593
0.00381025
0.246476
0.0087629
0.245043
0.011169
0.243497
0.0120349
0.0119751
0.24196
0.260244
0.00422892
0.259251
0.00975505
0.25797
0.0124502
0.256582
0.0134233
0.0133577
0.255199
0.273546
0.00457522
0.272706
0.0105949
0.271606
0.0135502
0.270403
0.0146269
0.0145634
0.269197
0.287534
0.00483541
0.286872
0.0112568
0.285978
0.0144443
0.284977
0.0156279
0.0155824
0.283958
0.302245
0.0049922
0.30179
0.0117119
0.301125
0.0151094
0.300336
0.0164167
0.0164192
0.299499
0.317721
0.00502163
0.317511
0.0119226
0.317103
0.0155172
0.316533
0.0169868
0.0170936
0.315858
0.334002
0.00489874
0.334077
0.0118469
0.333968
0.0156263
0.333634
0.0173209
0.0176321
0.333096
0.351098
0.00462566
0.35146
0.0114849
0.351681
0.0154055
0.351642
0.0173597
0.0180297
0.351245
0.369023
0.369481
0.369794
0.369909
0.369849
0.197357
-0.0505305
-0.197397
0.196944
-0.0577709
0.195919
-0.064042
0.194264
-0.0695591
0.192035
-0.0742871
0.189302
-0.0781602
0.186137
-0.0810877
0.182617
-0.0829465
0.17883
-0.0835924
0.174887
-0.0829763
0.170876
-0.0809017
0.166952
-0.0772312
0.163258
-0.072048
0.15994
-0.0654429
0.157128
-0.0575941
0.154927
-0.0487572
0.153409
-0.0392442
0.152606
-0.0293928
0.152514
-0.019539
0.153091
-0.00999065
0.154249
-0.00097639
0.15595
0.00729057
0.158083
0.0147225
0.160556
0.0212265
0.163282
0.0267834
0.16618
0.0314127
0.169182
0.03516
0.172224
0.0380872
0.175248
0.0402644
0.041757
0.178164
0.194725
-0.0506495
-0.194607
0.194061
-0.0571068
0.192707
-0.0626881
0.190763
-0.0676148
0.188306
-0.0718301
0.185409
-0.0752629
0.182138
-0.077817
0.178564
-0.079372
0.174771
-0.0797993
0.170856
-0.0790615
0.166899
-0.076945
0.163048
-0.0733799
0.159434
-0.0684345
0.156189
-0.0621974
0.15343
-0.0548351
0.151253
-0.0465812
0.149726
-0.0377172
0.148881
-0.0285472
0.148713
-0.0193714
0.149185
-0.010462
0.150252
-0.00204412
0.151826
0.00571699
0.153838
0.0127103
0.1562
0.0188648
0.158827
0.0241563
0.161643
0.0285968
0.16458
0.0322229
0.167581
0.0350861
0.170589
0.037256
0.0388653
0.173481
0.191409
-0.0503904
-0.191668
0.190441
-0.0561397
0.188874
-0.0611204
0.186784
-0.0655255
0.18424
-0.0692856
0.1813
-0.0723225
0.178021
-0.074538
0.174468
-0.075819
0.170726
-0.0760574
0.166873
-0.0752089
0.162994
-0.0730655
0.159225
-0.0696109
0.155688
-0.0648974
0.152503
-0.059013
0.149782
-0.0521135
0.147613
-0.0444129
0.146062
-0.0361659
0.145161
-0.0276457
0.14491
-0.0191204
0.145281
-0.0108334
0.146224
-0.00298733
0.147673
0.00426797
0.149556
0.0108277
0.151792
0.0166286
0.154302
0.0216461
0.157012
0.0258872
0.159854
0.0293807
0.162772
0.0321679
0.165715
0.0343135
0.0360197
0.16856
0.187981
-0.0497899
-0.188582
0.186757
-0.0549154
0.185007
-0.0593703
0.182791
-0.0633098
0.180166
-0.0666606
0.177184
-0.0693406
0.173899
-0.0712525
0.170368
-0.0722887
0.16668
-0.0723687
0.162891
-0.0714204
0.159094
-0.0692687
0.15541
-0.065927
0.15195
-0.0614374
0.148824
-0.0558868
0.146133
-0.0494222
0.143961
-0.0422406
0.142368
-0.0345733
0.141389
-0.0266664
0.141028
-0.0187599
0.141266
-0.011071
0.142059
-0.00378022
0.143351
0.00297569
0.145076
0.0091024
0.147162
0.0145429
0.149534
0.0192737
0.152123
0.023299
0.154862
0.0266419
0.157695
0.0293345
0.160575
0.0314339
0.0332091
0.163385
0.184473
-0.0488976
-0.185365
0.183024
-0.0534662
0.181106
-0.0574523
0.178771
-0.0609754
0.17607
-0.0639591
0.173049
-0.0663194
0.169758
-0.0679614
0.166253
-0.0687843
0.162615
-0.0687308
0.15889
-0.0676949
0.155173
-0.0655522
0.151571
-0.0623247
0.148184
-0.0580502
0.145112
-0.0528147
0.142447
-0.0467571
0.140266
-0.0400598
0.138627
-0.0329342
0.137563
-0.0256028
0.137084
-0.0182812
0.137177
-0.0111631
0.137806
-0.00440931
0.138924
0.00185763
0.140473
0.00755353
0.142388
0.0126279
0.144602
0.0170597
0.147049
0.0208519
0.149667
0.0240236
0.152402
0.0266
0.155206
0.0286292
0.0304374
0.157978
0.180853
-0.0477423
-0.182008
0.1792
-0.0518127
0.17713
-0.0553827
0.17469
-0.0585354
0.171922
-0.0611915
0.16887
-0.0632668
0.165578
-0.0646702
0.162104
-0.0653095
0.158513
-0.06514
0.15485
-0.0640316
0.151209
-0.0619115
0.147683
-0.0587986
0.144363
-0.0547307
0.141341
-0.0497925
0.1387
-0.0441159
0.136511
-0.0378706
0.134827
-0.0312507
0.133683
-0.0244583
0.133089
-0.0176875
0.133037
-0.0111116
0.133502
-0.00487351
0.134441
0.000918163
0.135806
0.00618908
0.137538
0.0108954
0.139579
0.0150191
0.141867
0.0185636
0.144345
0.0215452
0.146961
0.0239842
0.14967
0.0259206
0.0277228
0.152384
0.177101
-0.0463485
-0.178494
0.175264
-0.0499762
0.173061
-0.05318
0.170531
-0.0560045
0.167708
-0.058369
0.164632
-0.0601907
0.161346
-0.0613838
0.157903
-0.061867
0.154356
-0.0615927
0.150753
-0.0604288
0.147183
-0.0583415
0.143728
-0.0553434
0.140471
-0.0514742
0.137496
-0.0468173
0.134878
-0.0414983
0.132684
-0.0356759
0.130962
-0.0295287
0.129745
-0.0232411
0.129045
-0.0169884
0.12886
-0.0109257
0.129166
-0.00517994
0.129931
0.000153158
0.131111
0.00500872
0.132657
0.00934933
0.134516
0.0131607
0.136632
0.0164469
0.138954
0.0192232
0.141432
0.0215066
0.144022
0.0233305
0.0250891
0.146656
0.173207
-0.0447425
-0.174813
0.17121
-0.0479797
0.168892
-0.0508623
0.166284
-0.0533964
0.163417
-0.0555017
0.160325
-0.0570983
0.157046
-0.0581055
0.153636
-0.0584565
0.15013
-0.0580866
0.146586
-0.0568847
0.143082
-0.0548376
0.139693
-0.0519543
0.136495
-0.0482769
0.133566
-0.0438875
0.130973
-0.0389058
0.128778
-0.0334804
0.127025
-0.0277764
0.125747
-0.0219623
0.124955
-0.0161967
0.124648
-0.0106186
0.124808
-0.00534076
0.125409
-0.000447236
0.126412
0.00400594
0.127774
0.00798747
0.129448
0.0114867
0.131385
0.0145091
0.133539
0.0170694
0.135863
0.0191827
0.138316
0.0208779
0.0225597
0.140845
0.169166
-0.0429517
-0.170956
0.167032
-0.045846
0.164616
-0.0484466
0.161944
-0.0507237
0.15904
-0.0525985
0.155938
-0.0539955
0.152671
-0.0548386
0.14929
-0.0550756
0.145824
-0.0546214
0.142337
-0.0533968
0.138895
-0.0513957
0.135568
-0.0486277
0.132428
-0.0451364
0.129543
-0.0410029
0.126978
-0.0363411
0.124788
-0.0312902
0.123015
-0.0260032
0.121687
-0.0206341
0.120817
-0.0153267
0.120404
-0.0102057
0.120434
-0.00537119
0.120884
-0.000896711
0.12172
0.00316969
0.122905
0.00680232
0.124398
0.00999395
0.126155
0.0127517
0.128134
0.0150901
0.130294
0.0170236
0.132593
0.0185781
0.0201556
0.134998
0.164973
-0.0410028
-0.166922
0.162724
-0.0435965
0.160226
-0.0459487
0.1575
-0.0479976
0.154569
-0.0496672
0.15146
-0.0508868
0.148209
-0.0515875
0.144856
-0.0517224
0.141431
-0.0511969
0.137997
-0.0499624
0.134614
-0.048013
0.131347
-0.045361
0.128263
-0.0420518
0.125424
-0.0381644
0.122891
-0.0338077
0.120713
-0.029112
0.118928
-0.0242189
0.117564
-0.0192692
0.11663
-0.0143935
0.116128
-0.00970351
0.116045
-0.00528803
0.11636
-0.00121126
0.117043
0.00248586
0.118063
0.00578263
0.119382
0.00867495
0.120962
0.0111714
0.122766
0.0132868
0.124754
0.0150351
0.126891
0.016441
0.0178936
0.129153
0.160626
-0.038921
-0.162708
0.158281
-0.041251
0.155715
-0.0433832
0.152946
-0.0452288
0.149994
-0.0467151
0.146884
-0.0477769
0.143652
-0.0483548
0.140325
-0.048396
0.136942
-0.0478137
0.133559
-0.0465798
0.130234
-0.0446877
0.127026
-0.0421532
0.123997
-0.0390229
0.121207
-0.0353741
0.11871
-0.0313101
0.116551
-0.026953
0.114765
-0.0224335
0.113376
-0.0178805
0.112395
-0.0134121
0.11182
-0.00912859
0.111641
-0.00510856
0.111837
-0.00140797
0.112385
0.00193851
0.113253
0.00491456
0.114409
0.00751876
0.115819
0.00976101
0.11745
0.0116562
0.119267
0.0132184
0.121236
0.014472
0.0157854
0.123344
0.15612
-0.0367298
-0.158311
0.153696
-0.0388275
0.151077
-0.0407635
0.148275
-0.0424271
0.145309
-0.0437495
0.142202
-0.0446699
0.138989
-0.0451409
0.13569
-0.0450979
0.13235
-0.044473
0.129018
-0.0432486
0.12575
-0.0414194
0.122601
-0.0390045
0.11963
-0.0360513
0.116891
-0.032635
0.114434
-0.0288535
0.112302
-0.0248207
0.110525
-0.020657
0.109125
-0.0164802
0.10811
-0.012397
0.107478
-0.00849705
0.107219
-0.00484991
0.107316
-0.00150419
0.107743
0.00151088
0.108475
0.00418272
0.109482
0.00651217
0.110733
0.00851008
0.112197
0.0101914
0.113845
0.0115705
0.115646
0.0126716
0.013838
0.117593
0.15145
-0.0344506
-0.153729
0.148965
-0.0363422
0.146303
-0.0381016
0.143477
-0.0396014
0.140504
-0.0407765
0.137406
-0.0415723
0.134213
-0.0419475
0.130945
-0.0418302
0.127648
-0.0411758
0.124369
-0.0399693
0.121158
-0.0382087
0.11807
-0.0359161
0.115158
-0.0331393
0.112474
-0.0299509
0.110064
-0.0264433
0.107966
-0.0227225
0.106208
-0.0188991
0.104808
-0.0150802
0.103773
-0.0113619
0.1031
-0.0078242
0.102778
-0.0045285
0.102791
-0.0015169
0.103116
0.00118611
0.103727
0.00357107
0.104599
0.0056406
0.105703
0.00740618
0.107012
0.00888274
0.108497
0.0100846
0.110133
0.0110364
0.0120533
0.111917
0.14661
-0.0321029
-0.148958
0.144078
-0.0338094
0.141385
-0.0354091
0.138544
-0.0367606
0.135571
-0.0378031
0.132488
-0.0384894
0.129317
-0.0387761
0.126083
-0.0385971
0.122832
-0.0379243
0.119606
-0.0367439
0.116455
-0.0350578
0.11343
-0.0328907
0.110581
-0.0302903
0.107957
-0.0273263
0.105599
-0.0240857
0.103543
-0.0206662
0.101813
-0.0171692
0.100424
-0.0136916
0.099382
-0.0103196
0.0986822
-0.0071244
0.0983135
-0.00415985
0.0982589
-0.00146233
0.0984973
0.000947748
0.0990049
0.0030635
0.0997566
0.00488885
0.100727
0.00643562
0.101891
0.00771845
0.103224
0.00875165
0.104701
0.00956004
0.0104294
0.106325
0.141593
-0.0297038
-0.143992
0.139026
-0.0312427
0.136314
-0.0326972
0.133468
-0.033914
0.1305
-0.0348359
0.127436
-0.035425
0.124291
-0.0356309
0.121097
-0.035403
0.117894
-0.0347216
0.114726
-0.0335753
0.111638
-0.0319699
0.108679
-0.0299319
0.105897
-0.0275087
0.103338
-0.0247666
0.101039
-0.0217869
0.0990319
-0.0186595
0.0973391
-0.0154764
0.0959725
-0.012325
0.094935
-0.00928216
0.0942215
-0.00641093
0.09382
-0.00375834
0.0937134
-0.00135568
0.093881
0.000780134
0.0943002
0.00264431
0.0949473
0.0042417
0.0957988
0.00558411
0.0968316
0.0066857
0.0980227
0.00756058
0.0993493
0.00823346
0.00896096
0.100818
0.136386
-0.0272687
-0.138821
0.133799
-0.0286555
0.131079
-0.0299769
0.128235
-0.0310703
0.125283
-0.0318836
0.122241
-0.0323836
0.119128
-0.0325176
0.115978
-0.0322529
0.112828
-0.0315721
0.109721
-0.0304678
0.1067
-0.0289493
0.103813
-0.0270445
0.101104
-0.0247996
0.0986145
-0.0222775
0.0963812
-0.0195535
0.0944315
-0.0167097
0.0927843
-0.0138292
0.0914495
-0.0109901
0.0904279
-0.00826058
0.0897129
-0.00569597
0.0892918
-0.00333721
0.0891471
-0.00121104
0.0892587
0.000668617
0.0896044
0.00229861
0.0901617
0.00368434
0.0909085
0.00483735
0.0918231
0.00577109
0.0928844
0.00649928
0.0940716
0.00704621
0.0076402
0.0953924
0.130978
-0.0248119
-0.133435
0.128384
-0.0260615
0.125666
-0.0272594
0.122834
-0.0282381
0.119904
-0.0289536
0.116891
-0.0293704
0.113817
-0.0294438
0.110717
-0.0291524
0.107626
-0.0284812
0.104585
-0.0274269
0.101637
-0.0260016
0.0988267
-0.024234
0.096196
-0.022169
0.0937839
-0.0198654
0.0916229
-0.0173925
0.0897377
-0.0148246
0.0881446
-0.0122361
0.0868507
-0.00969622
0.0858551
-0.007265
0.0851498
-0.00499065
0.0847211
-0.0029085
0.0845513
-0.00104125
0.0846202
0.0005997
0.0849064
0.00201248
0.085388
0.00320275
0.0860438
0.00418147
0.0868537
0.00496127
0.0877977
0.00555525
0.088857
0.00598689
0.0064577
0.0900395
0.125351
-0.0223482
-0.127815
0.122764
-0.0234743
0.12006
-0.0245554
0.11725
-0.0254278
0.114349
-0.0260533
0.111372
-0.0263932
0.108346
-0.0264174
0.105302
-0.0261087
0.102277
-0.0254558
0.0993089
-0.0244592
0.0964406
-0.0231333
0.0937137
-0.0215071
0.0911682
-0.0196235
0.0888399
-0.0175371
0.0867582
-0.0153109
0.0849452
-0.0130115
0.083414
-0.0107049
0.0821697
-0.00845191
0.0812094
-0.00630474
0.0805238
-0.00430506
0.0800984
-0.00248308
0.0799151
-0.000857948
0.0799537
0.000561119
0.080193
0.00177318
0.0806119
0.00278385
0.08119
0.00360337
0.0819079
0.00424332
0.0827472
0.00471603
0.0836902
0.00504381
0.0054031
0.0847448
0.119487
-0.019893
-0.121942
0.116919
-0.0209063
0.11424
-0.0218763
0.111462
-0.02265
0.108599
-0.0231901
0.105668
-0.0234622
0.102698
-0.0234471
0.0997191
-0.0231301
0.0967673
-0.022504
0.0938808
-0.0215727
0.0910997
-0.0203522
0.0884639
-0.0188713
0.086011
-0.0171705
0.0837738
-0.0152999
0.0817789
-0.013316
0.0800453
-0.0112779
0.0785837
-0.00924339
0.077397
-0.00726522
0.0764806
-0.00538833
0.0758239
-0.00364831
0.0754115
-0.00207071
0.0752251
-0.000671508
0.0752443
0.000541881
0.0754483
0.00156917
0.0758164
0.00241575
0.0763289
0.00309092
0.0769671
0.00360512
0.0777134
0.00396971
0.0785517
0.00420553
0.00446576
0.079489
0.113359
-0.0174626
-0.11579
0.110823
-0.0183702
0.108181
-0.0192341
0.105446
-0.0199152
0.102631
-0.0203747
0.0997572
-0.0205888
0.0968532
-0.0205431
0.0939495
-0.0202264
0.0910808
-0.0196354
0.0882847
-0.0187766
0.0855997
-0.0176672
0.0830636
-0.0163352
0.0807114
-0.0148183
0.0785732
-0.0131616
0.0766726
-0.0114154
0.075026
-0.00963123
0.0736415
-0.00785895
0.07252
-0.00614368
0.0716552
-0.00452358
0.0710355
-0.00302857
0.0706448
-0.00168002
0.0704644
-0.0004911
0.070474
0.000532285
0.0706529
0.00139028
0.0709808
0.00208782
0.0714385
0.00263319
0.0720081
0.00303558
0.0726726
0.00330524
0.0734169
0.00346122
0.0036353
0.0742473
0.106932
-0.0150732
-0.109321
0.104441
-0.0158797
0.10185
-0.0166428
0.0991697
-0.0172347
0.0964157
-0.0176207
0.0936122
-0.0177853
0.0907863
-0.0177172
0.0879689
-0.0174091
0.0851945
-0.016861
0.0824994
-0.0160815
0.0799207
-0.0150885
0.077494
-0.0139085
0.0752515
-0.0125759
0.0732208
-0.0111309
0.0714225
-0.00961715
0.0698703
-0.00807905
0.0685702
-0.00655884
0.067521
-0.00509442
0.066715
-0.00371759
0.0661395
-0.00245313
0.0657781
-0.00131859
0.0656117
-0.00032468
0.06562
0.000523941
0.0657827
0.00122765
0.0660797
0.00179082
0.0664922
0.00222061
0.0670029
0.00252489
0.0675955
0.00271269
0.0682556
0.00280106
0.0029021
0.0689888
0.100159
-0.0127423
-0.10249
0.097731
-0.0134517
0.0952055
-0.0141173
0.0925939
-0.0146231
0.0899163
-0.0149431
0.0871968
-0.0150657
0.0844627
-0.0149831
0.081745
-0.0146915
0.0790777
-0.0141937
0.0764961
-0.0134999
0.0740354
-0.0126278
0.0717289
-0.011602
0.0696065
-0.0104534
0.0676924
-0.00921683
0.0660049
-0.00792965
0.064555
-0.00662909
0.0633463
-0.00535022
0.0623761
-0.00412418
0.0616354
-0.00297689
0.0611107
-0.00192843
0.060785
-0.000992942
0.0606393
-0.000178978
0.0606535
0.000509817
0.0608072
0.0010739
0.061081
0.001517
0.0614566
0.00184508
0.0619168
0.00206469
0.0624459
0.00218357
0.0630304
0.00221655
0.00225768
0.0636748
0.0929796
-0.0104901
-0.0952318
0.0906326
-0.0111047
0.0881892
-0.011674
0.0856648
-0.0120987
0.0830809
-0.0123592
0.0804619
-0.0124467
0.0778358
-0.012357
0.0752338
-0.0120894
0.072689
-0.0116489
0.0702354
-0.0110463
0.0679064
-0.0102988
0.0657329
-0.00942849
0.0637418
-0.00846229
0.0619548
-0.00742985
0.0603873
-0.0063621
0.0590477
-0.00528948
0.0579377
-0.0042403
0.057053
-0.00323942
0.0563835
-0.00230739
0.0559151
-0.00146006
0.0556307
-0.000708512
0.0555111
-5.9444e-05
0.0555366
0.000484325
0.0556873
0.000923217
0.0559441
0.00126025
0.0562889
0.00150022
0.0567053
0.00164835
0.0571778
0.00171103
0.0576936
0.00170081
0.0016951
0.0582561
0.0853096
-0.00833931
-0.0874604
0.0830638
-0.00885888
0.0807239
-0.00933409
0.0783079
-0.00968271
0.075838
-0.0098893
0.0733397
-0.00994844
0.0708415
-0.00985879
0.0683743
-0.00962224
0.0659706
-0.00924509
0.0636627
-0.00873842
0.0614817
-0.00811784
0.0594561
-0.00740288
0.0576099
-0.00661606
0.0559618
-0.00578173
0.0545244
-0.0049247
0.0533039
-0.00406896
0.0523001
-0.0032365
0.0515071
-0.00244645
0.0509142
-0.00171452
0.0505069
-0.00105276
0.050268
-0.000469594
0.0501787
2.9878e-05
0.0502195
0.000443494
0.0503712
0.00077156
0.0506151
0.00101638
0.0509337
0.0011816
0.0513108
0.00127121
0.0517316
0.00129027
0.0521834
0.00124895
0.00120937
0.0526692
0.0770272
-0.00631568
-0.0790508
0.0749087
-0.00674035
0.0726989
-0.00712433
0.070417
-0.00740079
0.0680866
-0.00755889
0.0657342
-0.00759607
0.0633887
-0.00751333
0.0610807
-0.00731419
0.0588412
-0.0070056
0.0567008
-0.00659805
0.0546882
-0.00610523
0.0528288
-0.00554345
0.0511436
-0.00493086
0.0496484
-0.00428649
0.048353
-0.00362932
0.0472614
-0.00297732
0.0463716
-0.00234675
0.0456767
-0.00175157
0.0451654
-0.00120319
0.044823
-0.000710352
0.0446326
-0.000279177
0.0445759
8.65809e-05
0.0446341
0.000385273
0.0447886
0.000617043
0.0450215
0.000783495
0.0453158
0.000887237
0.0456559
0.000931129
0.0460272
0.000918943
0.0464177
0.000858542
0.000797923
0.0468291
0.0679537
-0.00445251
-0.0698168
0.0659963
-0.00478298
0.0639497
-0.00507777
0.0618351
-0.00528618
0.0596776
-0.0054014
0.0575046
-0.00542304
0.0553448
-0.00535352
0.0532278
-0.0051972
0.0511831
-0.00496085
0.0492387
-0.0046537
0.0474205
-0.004287
0.0457506
-0.00387355
0.0442468
-0.00342707
0.0429218
-0.00296149
0.0417828
-0.0024903
0.0408315
-0.00202605
0.0400646
-0.00157988
0.0394743
-0.00116124
0.039049
-0.000777848
0.0387742
-0.000435588
0.0386337
-0.000138659
0.0386099
0.000110303
0.0386852
0.000310048
0.0388417
0.000460532
0.0390625
0.000562725
0.0393314
0.000618308
0.0396333
0.000629163
0.0399544
0.000597935
0.0402826
0.000530282
0.000461202
0.0406193
0.0578098
-0.00279381
-0.0594685
0.0560583
-0.0030315
0.0542209
-0.00324037
0.0523206
-0.00338582
0.0503835
-0.00346428
0.048437
-0.00347658
0.0465092
-0.00342567
0.0446278
-0.00331585
0.0428199
-0.00315299
0.0411107
-0.00294441
0.0395222
-0.00269857
0.0380733
-0.00242458
0.036778
-0.0021318
0.0356459
-0.00182941
0.0346816
-0.001526
0.0338849
-0.00122937
0.0332513
-0.000946271
0.0327725
-0.000682418
0.0324371
-0.000442421
0.0322313
-0.000229854
0.03214
-4.73187e-05
0.0321468
0.000103444
0.0322354
0.000221507
0.0323893
0.000306652
0.0325927
0.000359296
0.0328307
0.000380334
0.033089
0.000370845
0.0333544
0.00033253
0.0336156
0.000269055
0.00020348
0.0338733
0.046132
-0.00140447
-0.0475214
0.0446543
-0.00155382
0.0430969
-0.00168288
0.0414832
-0.00177219
0.0398393
-0.00182038
0.0381914
-0.00182862
0.0365652
-0.00179954
0.034986
-0.00173664
0.0334773
-0.00164424
0.0320602
-0.00152732
0.0307529
-0.00139125
0.0295698
-0.0012415
0.0285214
-0.00108339
0.0276139
-0.000921901
0.0268494
-0.000761502
0.0262261
-0.000606102
0.0257389
-0.000459019
0.0253794
-0.000323006
0.0251373
-0.000200304
0.0250002
-9.27016e-05
0.0249544
-1.53038e-06
0.0249856
7.22205e-05
0.0250793
0.000127868
0.0252208
0.000165094
0.0253962
0.000183913
0.0255919
0.000184601
0.0257952
0.000167604
0.0259938
0.000133856
0.0261776
8.53336e-05
3.44177e-05
0.0263466
0.0320925
-0.000398927
-0.033098
0.0310085
-0.000469871
0.0298554
-0.000529738
0.0286539
-0.000570759
0.027427
-0.000593425
0.0261975
-0.000599088
0.0249876
-0.000589666
0.0238182
-0.000567271
0.0227081
-0.000534156
0.0216735
-0.000492641
0.0207272
-0.00044501
0.0198791
-0.000393411
0.0191355
-0.000339785
0.0184994
-0.000285823
0.0179709
-0.000232953
0.0175472
-0.000182356
0.0172231
-0.000134995
0.0169918
-9.16605e-05
0.0168445
-5.30126e-05
0.0167715
-1.97161e-05
0.0167624
7.5907e-06
0.0168049
2.97403e-05
0.0168877
4.50101e-05
0.0169992
5.35792e-05
0.0171279
5.52818e-05
0.0172625
4.99823e-05
0.0173925
3.75618e-05
0.0175084
1.80069e-05
0.017602
-8.33432e-06
-3.52826e-05
0.0176717
0.014156
-0.014555
0.0136862
0.0131564
0.0125857
0.0119922
0.0113932
0.0108035
0.0102362
0.00970206
0.00920942
0.00876441
0.008371
0.00803121
0.00774539
0.00751244
0.00733008
0.00719509
0.00710343
0.00705041
0.0070307
0.00703829
0.00706803
0.00711304
0.00716662
0.0072219
0.00727188
0.00730944
0.00732745
0.00731912
0.00728383
0.351225
-0.178773
0.333837
-0.177218
0.317076
-0.174907
0.300819
-0.172325
0.28496
-0.169506
0.269412
-0.166461
0.254122
-0.163204
0.239057
-0.159748
0.224202
-0.156101
0.209551
-0.152271
0.195105
-0.148263
0.180874
-0.14408
0.166872
-0.139727
0.153117
-0.135202
0.139629
-0.130505
0.126435
-0.125628
0.113563
-0.120562
0.101044
-0.115296
0.0889119
-0.10981
0.0772044
-0.104082
0.0659635
-0.0980806
0.0552378
-0.091764
0.045083
-0.085077
0.0355657
-0.0779431
0.0267681
-0.0702533
0.018798
-0.0618467
0.0118051
-0.0524756
0.00601771
-0.041734
0.00183769
-0.028918
-0.0127173
0.334628
-0.162157
0.318167
-0.160757
0.302124
-0.158864
0.286431
-0.156632
0.27103
-0.154105
0.255887
-0.151318
0.240982
-0.148299
0.226303
-0.145069
0.211848
-0.141646
0.197618
-0.138042
0.183624
-0.134268
0.169877
-0.130333
0.156393
-0.126243
0.143191
-0.122001
0.130292
-0.117605
0.117719
-0.113054
0.105496
-0.108339
0.0936505
-0.103451
0.082213
-0.0983726
0.0712162
-0.0930852
0.0606969
-0.0875612
0.050697
-0.0817642
0.0412658
-0.0756458
0.0324617
-0.069139
0.0243582
-0.0621498
0.0170517
-0.0545402
0.010677
-0.0461009
0.00543846
-0.0364955
0.00167964
-0.0251592
-0.0110376
0.317358
-0.146419
0.301796
-0.145194
0.28649
-0.143558
0.271431
-0.141573
0.256605
-0.139278
0.242002
-0.136715
0.227619
-0.133916
0.213457
-0.130907
0.199521
-0.12771
0.185823
-0.124343
0.172374
-0.12082
0.159192
-0.117151
0.146292
-0.113344
0.133694
-0.109403
0.121418
-0.105329
0.109484
-0.10112
0.0979166
-0.0967715
0.0867393
-0.0922732
0.0759791
-0.0876124
0.0656655
-0.0827716
0.0558312
-0.077727
0.0465139
-0.0724469
0.0377572
-0.0668891
0.029614
-0.0609958
0.0221504
-0.0546861
0.0154532
-0.047843
0.00964386
-0.0402915
0.00490315
-0.0317548
0.00152384
-0.0217799
-0.0095138
0.300886
-0.131447
0.286051
-0.130359
0.271388
-0.128895
0.256907
-0.127092
0.242617
-0.124988
0.228526
-0.122625
0.214647
-0.120036
0.200989
-0.11725
0.187568
-0.114289
0.174398
-0.111173
0.161495
-0.107917
0.148877
-0.104532
0.13656
-0.101027
0.124562
-0.097405
0.112902
-0.0936691
0.1016
-0.0898177
0.0906745
-0.0858464
0.0801488
-0.0817474
0.0700461
-0.0775098
0.0603926
-0.0731181
0.0512174
-0.0685517
0.0425538
-0.0637833
0.034441
-0.0587763
0.0269264
-0.0534812
0.0200694
-0.0478291
0.0139482
-0.0417218
0.00867053
-0.0350139
0.00439473
-0.027479
0.00136774
-0.0187529
-0.00814606
0.285161
-0.117108
0.270923
-0.116122
0.256815
-0.114787
0.242859
-0.113135
0.229076
-0.111205
0.215486
-0.109035
0.202108
-0.106658
0.188961
-0.104102
0.176061
-0.10139
0.163427
-0.0985392
0.151076
-0.0955657
0.139023
-0.0924802
0.127287
-0.0892905
0.115884
-0.0860016
0.10483
-0.0826154
0.0941434
-0.079131
0.0838419
-0.0755449
0.0739449
-0.0718505
0.0644735
-0.0680384
0.0554506
-0.0640952
0.046902
-0.0600032
0.0388576
-0.0557389
0.0313524
-0.051271
0.0244286
-0.0465575
0.0181398
-0.0415403
0.0125554
-0.0361374
0.00777062
-0.0302291
0.00392228
-0.0236307
0.00121781
-0.0160484
-0.00692825
0.270158
-0.103308
0.256441
-0.102404
0.242837
-0.101183
0.229377
-0.0996749
0.216087
-0.0979157
0.202994
-0.0959418
0.19012
-0.0937841
0.177486
-0.0914682
0.165112
-0.0890154
0.153016
-0.086443
0.141214
-0.0837644
0.129724
-0.0809901
0.118561
-0.0781272
0.10774
-0.0751803
0.0972757
-0.0721514
0.0871844
-0.0690397
0.0774821
-0.0658425
0.0681857
-0.0625541
0.0593137
-0.0591664
0.0508867
-0.0556681
0.0429274
-0.0520439
0.0354626
-0.048274
0.0285233
-0.0443318
0.0221476
-0.0401818
0.016383
-0.0357757
0.0112912
-0.0310455
0.00695529
-0.0258932
0.00349315
-0.0201685
0.00107907
-0.0136343
-0.00584919
0.255881
-0.0899918
0.242644
-0.0891674
0.229519
-0.088059
0.21654
-0.0866961
0.203738
-0.0851135
0.19114
-0.0833437
0.178771
-0.0814145
0.166651
-0.0793491
0.154802
-0.0771664
0.143241
-0.0748818
0.131984
-0.0725074
0.121046
-0.0700523
0.110442
-0.067523
0.100185
-0.0649234
0.0902891
-0.0622553
0.0807677
-0.0595183
0.0716352
-0.05671
0.0629066
-0.0538256
0.0545984
-0.0508582
0.0467286
-0.0477983
0.0393177
-0.044633
0.0323892
-0.0413455
0.0259711
-0.0379137
0.0200972
-0.034308
0.0148098
-0.0304883
0.0101632
-0.026399
0.00623012
-0.0219601
0.00311156
-0.01705
0.000954692
-0.0114774
-0.00489449
0.242341
-0.0771341
0.229567
-0.0763934
0.216912
-0.0754038
0.204411
-0.0741946
0.192094
-0.0727973
0.179991
-0.0712406
0.168126
-0.069549
0.156519
-0.0677425
0.145191
-0.0658377
0.134157
-0.0638478
0.123432
-0.0617832
0.113032
-0.0596517
0.102967
-0.0574588
0.0932521
-0.055208
0.0838977
-0.0529008
0.0749162
-0.0505369
0.0663205
-0.0481142
0.0581237
-0.0456288
0.0503403
-0.0430749
0.0429865
-0.0404445
0.0360804
-0.0377269
0.0296431
-0.0349082
0.0236995
-0.0319701
0.0182798
-0.0288882
0.0134214
-0.0256299
0.00917219
-0.0221498
0.00559554
-0.0183834
0.00277852
-0.0142329
0.000846031
-0.00954494
-0.00404846
0.229554
-0.0647276
0.217239
-0.0640783
0.205051
-0.0632166
0.193027
-0.0621702
0.181197
-0.060967
0.169588
-0.0596315
0.158223
-0.0581844
0.147123
-0.0566428
0.136306
-0.0550205
0.125787
-0.0533286
0.11558
-0.0515758
0.105697
-0.0497687
0.0961497
-0.0479118
0.0869495
-0.0460079
0.078107
-0.0440583
0.0696329
-0.0420628
0.0615383
-0.0400196
0.0538351
-0.0379256
0.0465361
-0.0357759
0.0396557
-0.033564
0.0332101
-0.0312813
0.0272181
-0.0289162
0.0217021
-0.026454
0.0166889
-0.023875
0.0122118
-0.0211528
0.00831316
-0.0182512
0.00504827
-0.0151185
0.00249262
-0.0116773
0.000753101
-0.00780543
-0.00329536
0.217522
-0.0527747
0.205669
-0.052225
0.193952
-0.0514999
0.182406
-0.0506244
0.171061
-0.049622
0.159943
-0.0485132
0.149073
-0.0473147
0.138471
-0.0460407
0.128153
-0.0447022
0.118132
-0.0433084
0.108423
-0.0418662
0.0990348
-0.0403808
0.0899791
-0.0388561
0.0812654
-0.0372942
0.0729032
-0.0356961
0.0649021
-0.0340617
0.0572721
-0.0323896
0.0500236
-0.0306771
0.0431682
-0.0289205
0.0367188
-0.0271146
0.0306898
-0.0252523
0.0250982
-0.0233247
0.0199641
-0.0213199
0.0153115
-0.0192224
0.0111701
-0.0170115
0.00757748
-0.0146585
0.00458238
-0.0121234
0.00225073
-0.00934564
0.000675057
-0.00622975
-0.0026203
0.206237
-0.0412816
0.19485
-0.0408383
0.183607
-0.0402564
0.17254
-0.0395573
0.161677
-0.0387598
0.151044
-0.03788
0.140661
-0.0369311
0.130544
-0.035924
0.120709
-0.0348674
0.111169
-0.0337685
0.101936
-0.0326325
0.0930183
-0.0314635
0.0844267
-0.0302645
0.0761696
-0.0290371
0.0682555
-0.0277821
0.0606931
-0.0264993
0.0534912
-0.0251877
0.0466594
-0.0238453
0.0402079
-0.0224691
0.0341484
-0.0210551
0.0284941
-0.019598
0.0232602
-0.0180908
0.0184648
-0.0165245
0.0141296
-0.0148873
0.0102814
-0.0131633
0.00695382
-0.0113309
0.00419014
-0.00935975
0.00204865
-0.00720415
0.000610535
-0.00479164
-0.00200977
0.195675
-0.0302548
0.184759
-0.0299222
0.17399
-0.0294875
0.1634
-0.0289672
0.153016
-0.0283753
0.142859
-0.0277236
0.13295
-0.0270219
0.123305
-0.0262782
0.113936
-0.0254987
0.104856
-0.0246887
0.0960755
-0.023852
0.0876035
-0.0229915
0.0794485
-0.0221094
0.0716183
-0.0212069
0.0641207
-0.0202845
0.0569636
-0.0193422
0.0501549
-0.018379
0.0437034
-0.0173937
0.0376183
-0.016384
0.0319104
-0.0153471
0.0265915
-0.0142791
0.0216757
-0.0131749
0.0171794
-0.0120282
0.0131223
-0.0108302
0.00952889
-0.00956983
0.00642939
-0.00823142
0.0038629
-0.00679326
0.00188159
-0.00522284
0.00055791
-0.00346795
-0.00145186
0.185801
-0.0196987
0.175357
-0.0194786
0.165061
-0.0191918
0.154944
-0.0188495
0.145029
-0.0184608
0.135339
-0.0180335
0.125891
-0.0175739
0.1167
-0.0170872
0.107779
-0.0165775
0.0991382
-0.0160481
0.0907877
-0.0155015
0.0827359
-0.0149397
0.0749903
-0.0143639
0.0675584
-0.013775
0.0604472
-0.0131733
0.0536639
-0.0125588
0.0472158
-0.011931
0.0411109
-0.0112888
0.0353579
-0.010631
0.0299664
-0.00995561
0.0249475
-0.0092602
0.020314
-0.00854152
0.0160813
-0.00779539
0.0122673
-0.00701634
0.00889458
-0.00619707
0.0059908
-0.00532764
0.00359168
-0.00439414
0.00174462
-0.00337578
0.000515485
-0.00223882
-0.000936375
0.176566
-0.00961472
0.166594
-0.00950627
0.156767
-0.00936521
0.147115
-0.00919712
0.137661
-0.00900652
0.128424
-0.00879716
0.119422