/*--------------------------------*- C++ -*----------------------------------*\
  =========                 |
  \\      /  F ield         | OpenFOAM: The Open Source CFD Toolbox
   \\    /   O peration     | Website:  https://openfoam.org
    \\  /    A nd           | Version:  12
     \\/     M anipulation  |
\*---------------------------------------------------------------------------*/
FoamFile
{
    format      ascii;
    class       volScalarField;
    location    "340";
    object      pMean;
}
// * * * * * * * * * * * * * * * * * * * * * * * * * * * * * * * * * * * * * //

dimensions      [0 2 -2 0 0 0 0];

internalField   nonuniform List<scalar> 
6750
(
0.0114784
0.0114524
0.0114107
0.0112365
0.0102514
0.0131271
0.0130974
0.0129786
0.0127215
0.0123775
0.0150322
0.0149805
0.0148587
0.0146689
0.0145263
0.0170122
0.0169258
0.0168101
0.0166775
0.0166098
0.0189694
0.0188392
0.0187141
0.0186097
0.0185803
0.0208244
0.0206459
0.0205007
0.0204073
0.0203962
0.0225285
0.0223005
0.0221313
0.0220421
0.0220409
0.0240522
0.0237754
0.0235824
0.0234955
0.0235009
0.025377
0.025054
0.0248391
0.0247544
0.024765
0.0264928
0.0261275
0.0258939
0.0258117
0.0258264
0.0273966
0.0269943
0.0267457
0.0266667
0.0266844
0.0280921
0.0276591
0.0273998
0.0273239
0.0273437
0.0285891
0.0281316
0.0278665
0.0277937
0.0278145
0.0289028
0.0284264
0.0281617
0.0280905
0.0281111
0.0290467
0.0285647
0.0283054
0.0282319
0.0282506
0.0290469
0.0285648
0.0283055
0.028232
0.0282507
0.0289031
0.0284268
0.0281621
0.0280909
0.0281114
0.0285897
0.0281322
0.0278671
0.0277943
0.0278151
0.0280928
0.0276599
0.0274006
0.0273248
0.0273445
0.0273976
0.0269953
0.0267468
0.0266677
0.0266854
0.026494
0.0261287
0.0258951
0.025813
0.0258276
0.0253784
0.0250554
0.0248405
0.0247558
0.0247664
0.0240537
0.023777
0.023584
0.0234971
0.0235026
0.0225302
0.0223022
0.0221331
0.0220439
0.0220427
0.0208263
0.0206478
0.0205026
0.0204092
0.0203981
0.0189714
0.0188412
0.0187161
0.0186118
0.0185823
0.0170142
0.0169278
0.0168122
0.0166796
0.0166119
0.0150343
0.0149827
0.0148609
0.0146711
0.0145284
0.0131293
0.0130996
0.0129808
0.0127237
0.0123797
0.0114806
0.0114546
0.0114129
0.0112387
0.0102536
0.00436374
0.00490946
0.0062886
0.00730008
0.00802801
0.00860555
0.00906003
0.00940581
0.00966999
0.00985995
0.00995502
0.0100175
0.0100243
0.00997278
0.00986111
0.00968466
0.00943898
0.00912422
0.00874068
0.00828671
0.00775893
0.00724746
0.00670027
0.00613178
0.0055599
0.0049958
0.00444816
0.0039336
0.00346231
0.00293149
0.00813796
0.00887493
0.00962204
0.00998777
0.0101922
0.0103177
0.0103675
0.010353
0.0103
0.0102016
0.0100398
0.00990673
0.00977011
0.00963355
0.00949543
0.00934635
0.0091732
0.00896354
0.00870536
0.00839366
0.00804071
0.0075831
0.00709812
0.00657453
0.00601939
0.00544303
0.00485274
0.00426466
0.00372422
0.00318957
0.0105895
0.0107559
0.0110515
0.0111896
0.011255
0.0112597
0.0111931
0.0110669
0.0108983
0.0106536
0.0103535
0.010069
0.0097682
0.00946236
0.00915738
0.00885315
0.00854615
0.00823066
0.00790015
0.00754875
0.00717355
0.00677498
0.00635425
0.00591084
0.0054484
0.00497163
0.00448063
0.00398582
0.00357043
0.00328204
0.012061
0.0118495
0.0119744
0.0120497
0.0120559
0.0119921
0.0118539
0.011657
0.0114063
0.0110444
0.0106434
0.0102298
0.00978388
0.00932212
0.00885639
0.00839486
0.0079432
0.00750425
0.0070785
0.00666402
0.00625827
0.00586408
0.00547573
0.0050894
0.00470376
0.00431781
0.00392417
0.00352498
0.00323719
0.00323911
0.0132002
0.012855
0.0129056
0.0129167
0.0128463
0.012701
0.0124813
0.0122005
0.0118526
0.0113787
0.0108761
0.0103378
0.00975989
0.00916197
0.00855991
0.00796755
0.00739657
0.00685552
0.00634948
0.00587987
0.00544546
0.00504441
0.00467201
0.00432227
0.00399014
0.00367064
0.00335026
0.00302279
0.00283245
0.00310294
0.014207
0.0138293
0.0138208
0.0137578
0.013607
0.0133797
0.013077
0.0127079
0.0122532
0.0116746
0.0110666
0.0104077
0.00970611
0.0089835
0.00825912
0.00755106
0.0068753
0.00624424
0.00566601
0.00514421
0.00467844
0.00426532
0.00389928
0.00357286
0.00327874
0.00300926
0.002746
0.0024762
0.00236641
0.00287915
0.0151141
0.0147447
0.0146821
0.0145473
0.0143217
0.0140167
0.0136341
0.0131782
0.0126125
0.0119378
0.0112243
0.0104502
0.00963146
0.00879189
0.00795366
0.00713838
0.00636537
0.00564999
0.00500269
0.00442864
0.00392815
0.00349752
0.00313013
0.00281727
0.00255008
0.00231883
0.00210099
0.00187923
0.00184021
0.00256787
0.0159408
0.0156053
0.015495
0.0152923
0.0149956
0.014615
0.0141548
0.0136123
0.0129359
0.0121724
0.0113537
0.0104686
0.00953834
0.00858809
0.00764273
0.00672672
0.00586212
0.00506663
0.00435254
0.00372627
0.00318867
0.00273597
0.00236082
0.00205356
0.00180417
0.00160115
0.00141863
0.00123606
0.0012593
0.00217249
0.0167076
0.0164239
0.0162708
0.0160022
0.0156358
0.0151814
0.0146441
0.0140105
0.0132314
0.0123801
0.0114571
0.0104649
0.00942766
0.00837183
0.00732469
0.00631316
0.00536149
0.0044893
0.00371033
0.00303196
0.00245552
0.00197718
0.00158909
0.00128086
0.00104161
0.000858362
0.000702258
0.000551188
0.000629217
0.00169823
0.0174305
0.0172099
0.0170173
0.0166836
0.0162482
0.0157221
0.0151067
0.0143754
0.0135046
0.0125623
0.0115371
0.0104411
0.00930027
0.0081427
0.00699779
0.00589455
0.00485909
0.0039126
0.00307
0.00233944
0.00172261
0.00121564
0.000810331
0.00049573
0.000260178
8.9616e-05
-4.77735e-05
-0.000174066
-4.73127e-05
0.00115006
0.0181209
0.017971
0.0177416
0.0173424
0.0168375
0.0162406
0.0155462
0.0147137
0.0137587
0.0127226
0.0115966
0.0103988
0.00915682
0.00790016
0.00666019
0.00546776
0.00435061
0.00333122
0.0024255
0.00164224
0.000983424
0.000445153
1.89259e-05
-0.000306652
-0.000543811
-0.00070775
-0.000832902
-0.000940094
-0.000769618
0.000531943
0.0187884
0.0187143
0.0184501
0.0179846
0.0174095
0.0167423
0.0159649
0.0150331
0.013996
0.0128641
0.0116379
0.0103396
0.00899772
0.00764347
0.00630998
0.00502973
0.00383186
0.00274002
0.00177096
0.000934017
0.00023142
-0.000340759
-0.000791261
-0.00113186
-0.00137526
-0.0015378
-0.00165619
-0.00174919
-0.00153923
-0.000153748
0.0194422
0.0194473
0.0191501
0.0186176
0.0179727
0.0172311
0.0163635
0.0153417
0.0142189
0.0129895
0.0116632
0.0102646
0.00882309
0.00737167
0.00594507
0.00457724
0.00329861
0.00213386
0.0011005
0.000208341
-0.000540162
-0.00114896
-0.001627
-0.00198636
-0.00224019
-0.00240594
-0.00252251
-0.00260563
-0.00235968
-0.000906566
0.0200912
0.0201767
0.0198485
0.019248
0.0185321
0.0177136
0.0167497
0.0156441
0.0144299
0.0131015
0.0116744
0.0101746
0.00863281
0.00708355
0.00556314
0.00410689
0.00274643
0.00150739
0.00040798
-0.00054154
-0.00133851
-0.0019869
-0.00249582
-0.00287766
-0.00314587
-0.00331912
-0.00343838
-0.0035155
-0.00323651
-0.00172829
0.0207426
0.0209123
0.0205541
0.0198843
0.0190952
0.0181941
0.0171326
0.0159434
0.014633
0.0132032
0.0116733
0.0100704
0.00842649
0.0067776
0.00516154
0.00361495
0.00217056
0.000854899
-0.00031315
-0.00132289
-0.00217146
-0.00286281
-0.00340622
-0.00381428
-0.00410086
-0.00428581
-0.00441205
-0.00448679
-0.00417736
-0.0026232
0.0214039
0.0216656
0.0212793
0.0205384
0.0196691
0.018675
0.0175224
0.0162433
0.0148319
0.0132975
0.0116617
0.00995256
0.00820343
0.00645192
0.00473721
0.00309719
0.00156567
0.000170052
-0.00107013
-0.00214374
-0.0030477
-0.00378593
-0.00436785
-0.0048062
-0.00511529
-0.00531621
-0.00545373
-0.00552967
-0.00519216
-0.00359838
0.0220853
0.0224493
0.0220358
0.0212197
0.020263
0.0191667
0.0179258
0.0165482
0.0150306
0.0133873
0.0116411
0.00982125
0.00796256
0.0061041
0.00428644
0.00254868
0.000925664
-0.000554336
-0.00187114
-0.00301318
-0.00397713
-0.00476686
-0.00539189
-0.00586511
-0.00620116
-0.00642263
-0.00657596
-0.0066568
-0.00629347
-0.00466409
0.0228039
0.0232772
0.022838
0.0219367
0.020882
0.0196842
0.0183487
0.0168639
0.0152339
0.0134756
0.011613
0.00967639
0.00770227
0.00573109
0.00380474
0.00196354
0.000243376
-0.00132665
-0.00272571
-0.00394177
-0.00497125
-0.00581796
-0.00649146
-0.00700479
-0.00737291
-0.00761995
-0.00779405
-0.00788391
-0.00749708
-0.00583434
0.0235821
0.0241609
0.0236978
0.0227045
0.0215378
0.0202392
0.0187972
0.0171967
0.0154465
0.0135655
0.0115785
0.00951744
0.00742025
0.00532885
0.00328646
0.00133459
-0.000489867
-0.00215695
-0.00364518
-0.00494207
-0.00604376
-0.00695395
-0.00768225
-0.00824183
-0.00864798
-0.00892639
-0.0091268
-0.00923032
-0.00882247
-0.00712757
0.0244395
0.0251221
0.0246345
0.0235369
0.0222487
0.020842
0.0192812
0.0175546
0.0156743
0.0136602
0.0115387
0.0093432
0.0071132
0.00489208
0.00272437
0.00065277
-0.00128481
-0.00305759
-0.00464343
-0.00602938
-0.00721128
-0.00819274
-0.00898337
-0.0095964
-0.0100475
-0.0103641
-0.0105973
-0.0107201
-0.0102945
-0.00856794
0.025404
0.0261926
0.0256704
0.0244501
0.0230382
0.0215073
0.0198133
0.0179474
0.0159235
0.0137631
0.0114941
0.00915149
0.00677636
0.00441356
0.00210896
-9.35757e-05
-0.00215515
-0.00404416
-0.00573785
-0.0072228
-0.00849457
-0.00955663
-0.0104186
-0.0110937
-0.0115981
-0.011961
-0.0122352
-0.0123837
-0.0119443
-0.0101869
0.0265172
0.0273989
0.0268297
0.0254791
0.0239295
0.0222536
0.0204084
0.0183859
0.0162012
0.0138775
0.0114444
0.00893858
0.00640277
0.00388331
0.00142743
-0.000919875
-0.00311876
-0.00513687
-0.00695084
-0.00854682
-0.0099201
-0.011074
-0.0120182
-0.0127658
-0.0133336
-0.0137526
-0.0140771
-0.0142599
-0.0138123
-0.0120257
0.0278288
0.0287886
0.0281564
0.0266637
0.0249501
0.0231046
0.0210852
0.0188835
0.0165156
0.0140065
0.0113879
0.00869834
0.00598214
0.00328722
0.00066212
-0.00184709
-0.00419968
-0.00636262
-0.00831202
-0.0100337
-0.0115226
-0.012782
-0.0138216
-0.0146546
-0.0152983
-0.0157853
-0.0161717
-0.0163997
-0.0159518
-0.0141395
0.0294114
0.0304275
0.0297144
0.0280498
0.026138
0.0240914
0.0218675
0.0194563
0.0168755
0.0141523
0.0113205
0.0084207
0.00549896
0.00260477
-0.000212086
-0.00290454
-0.00543114
-0.00775831
-0.00986178
-0.011727
-0.013349
-0.0147308
-0.015882
-0.016816
-0.0175507
-0.0181208
-0.0185837
-0.0188706
-0.0184341
-0.0166035
0.0313818
0.0324142
0.0315818
0.0296993
0.0275459
0.025256
0.0227859
0.0201244
0.0172909
0.0143153
0.0112338
0.00808905
0.0049292
0.00180519
-0.00123203
-0.00413465
-0.0068607
-0.00937633
-0.011657
-0.0136882
-0.0154648
-0.0169898
-0.0182729
-0.0193276
-0.0201724
-0.0208446
-0.0214021
-0.0217654
-0.0213574
-0.0195228
0.033883
0.0348841
0.0338693
0.0317063
0.0292501
0.0266573
0.0238826
0.020914
0.0177729
0.0144924
0.0111116
0.00767562
0.00423457
0.00084082
-0.00245383
-0.00560115
-0.00855914
-0.011294
-0.0137815
-0.016007
-0.0179655
-0.0196603
-0.021101
-0.0223011
-0.0232801
-0.0240774
-0.0247528
-0.0252154
-0.0248618
-0.0230493
0.0371849
0.0380462
0.0367484
0.0342127
0.0313653
0.0283821
0.0252172
0.0218586
0.0183311
0.0146715
0.0109225
0.00713177
0.00335139
-0.000365233
-0.00396607
-0.00740328
-0.0106356
-0.0136301
-0.0163632
-0.0188209
-0.0209984
-0.0228988
-0.0245318
-0.0259109
-0.027056
-0.0280087
-0.0288296
-0.029421
-0.0291607
-0.0274185
0.041716
0.0422234
0.0404621
0.0374121
0.0340429
0.0305408
0.0268608
0.0229932
0.0189671
0.0148243
0.0106113
0.00637904
0.00218125
-0.00192837
-0.00589869
-0.00968361
-0.0132441
-0.0165494
-0.0195776
-0.022316
-0.0247606
-0.0269149
-0.028788
-0.0303934
-0.0317512
-0.0329036
-0.0339109
-0.0346749
-0.0345801
-0.0330092
0.0483709
0.0481423
0.0456246
0.0418541
0.0377575
0.033511
0.0290813
0.0244725
0.0197256
0.0148922
0.0100262
0.00518319
0.000418123
-0.0042164
-0.00867245
-0.0129083
-0.0168897
-0.0205902
-0.0239908
-0.0270795
-0.0298559
-0.0323315
-0.0345036
-0.0363848
-0.0379948
-0.0393726
-0.0405739
-0.0415166
-0.0416622
-0.0404512
0.0600607
0.0581197
0.0539971
0.0489484
0.0436407
0.0381711
0.0325342
0.0267654
0.0209238
0.0150709
0.00926534
0.00356186
-0.00199003
-0.00734706
-0.0124728
-0.0173379
-0.021919
-0.0261988
-0.0301664
-0.0338157
-0.0371397
-0.0401291
-0.0428019
-0.0451638
-0.0472241
-0.0490075
-0.0505604
-0.0518686
-0.0526008
-0.0521326
0.00789915
0.00888706
0.0106499
0.0120631
0.0132601
0.0143809
0.0154573
0.0164974
0.0175108
0.018507
0.0194946
0.020482
0.021478
0.022492
0.0235338
0.0246151
0.0257499
0.0269561
0.028254
0.0296672
0.0312264
0.0329733
0.0349596
0.0372559
0.0399585
0.0432112
0.0472092
0.0521951
0.0583839
0.0664747
0.0122525
0.0132737
0.0144374
0.0154174
0.0163009
0.0171485
0.0179715
0.0187742
0.0195641
0.0203493
0.0211377
0.0219375
0.0227572
0.023606
0.024494
0.0254332
0.0264383
0.0275269
0.0287202
0.0300448
0.031535
0.0332365
0.0352097
0.0375376
0.040337
0.0437803
0.0481153
0.0536955
0.0610076
0.0708054
0.0146549
0.0155678
0.0164558
0.0172546
0.0180333
0.0188089
0.0195787
0.0203439
0.0211097
0.0218819
0.0226669
0.0234717
0.0243037
0.0251716
0.0260853
0.0270568
0.0281007
0.0292351
0.0304823
0.0318706
0.0334372
0.0352315
0.0373197
0.039794
0.0427849
0.0464817
0.0511644
0.0572427
0.0653689
0.0763925
0.0167615
0.017565
0.0183379
0.0190564
0.0197703
0.0204903
0.0212157
0.0219497
0.0226973
0.0234644
0.0242568
0.0250813
0.0259452
0.026857
0.0278269
0.0288672
0.0299929
0.0312227
0.0325801
0.0340951
0.0358071
0.0377685
0.0400499
0.0427492
0.0460043
0.0500143
0.0550731
0.0616052
0.0703521
0.0822003
0.0187283
0.0194377
0.0201201
0.0207665
0.0214197
0.0220901
0.0227789
0.023489
0.0242249
0.0249918
0.0257951
0.0266412
0.0275373
0.0284923
0.0295164
0.0306224
0.0318261
0.0331471
0.03461
0.0362468
0.0380991
0.0402218
0.0426895
0.0456043
0.0491101
0.0534131
0.0588166
0.065754
0.0750493
0.0876398
0.0205256
0.0211512
0.0217561
0.0223419
0.0229469
0.0235805
0.0242436
0.0249388
0.0256699
0.0264417
0.0272591
0.0281285
0.0290569
0.0300533
0.0311281
0.0322946
0.0335689
0.0349714
0.0365281
0.0382721
0.0402469
0.04251
0.0451385
0.0482387
0.051959
0.0565118
0.0622095
0.0694972
0.0792796
0.0925728
0.0221489
0.0226994
0.0232384
0.0237745
0.0243418
0.0249477
0.0255929
0.0262793
0.0270106
0.0277909
0.028625
0.0295189
0.0304798
0.0315163
0.0326393
0.0338621
0.0352014
0.0366783
0.0383194
0.0401591
0.0422422
0.0446281
0.0473963
0.0506558
0.054559
0.0593237
0.0652703
0.0728565
0.0830532
0.09697
0.0235927
0.0240754
0.0245579
0.0250534
0.0255908
0.0261759
0.0268087
0.0274909
0.0282256
0.0290165
0.0298682
0.0307864
0.0317782
0.0328523
0.0340196
0.0352938
0.0366918
0.0382351
0.0399513
0.0418754
0.0440535
0.0465462
0.0494349
0.052831
0.0568899
0.0618335
0.0679896
0.0758273
0.0863639
0.100805
0.0248479
0.02527
0.0257044
0.0261669
0.0266813
0.027251
0.0278756
0.0285566
0.0292965
0.0300986
0.0309674
0.0319083
0.0329283
0.0340361
0.0352428
0.036562
0.0380112
0.0396123
0.0413931
0.0433897
0.0456487
0.0482321
0.0512225
0.0547332
0.0589219
0.0640141
0.0703436
0.0783888
0.0891967
0.104064
0.0259075
0.0262763
0.0266708
0.0271075
0.0276042
0.0281627
0.0287822
0.0294638
0.0302095
0.0310225
0.0319068
0.0328678
0.0339124
0.0350493
0.0362895
0.0376471
0.0391395
0.0407889
0.0426237
0.0446804
0.0470064
0.0496643
0.0527381
0.0563422
0.0606365
0.0658486
0.0723178
0.0805301
0.0915455
0.106755
0.0267687
0.0270924
0.027455
0.0278718
0.0283554
0.028906
0.0295225
0.0302055
0.030957
0.0317796
0.0326772
0.0336552
0.0347202
0.035881
0.0371488
0.0385375
0.0400648
0.0417533
0.0436315
0.0457363
0.0481157
0.0508329
0.0539726
0.0576505
0.0620276
0.0673337
0.0739118
0.082254
0.0934205
0.108902
0.027434
0.0277214
0.0280596
0.028462
0.0289362
0.0294813
0.0300961
0.030781
0.0315374
0.0323679
0.0332763
0.0342676
0.0353487
0.0365282
0.0378173
0.0392301
0.0407844
0.0425028
0.0444142
0.0465557
0.0489758
0.051738
0.0549276
0.0586611
0.0631006
0.068477
0.0751366
0.0835753
0.0948463
0.110538
0.0279112
0.0281715
0.0284926
0.028885
0.0293529
0.0298945
0.0305084
0.0311948
0.0319551
0.0327916
0.0337079
0.034709
0.0358018
0.0369949
0.0382994
0.0397295
0.0413031
0.0430429
0.044978
0.0471457
0.0495947
0.0523888
0.0556138
0.0593865
0.0638699
0.0692957
0.0760126
0.0845184
0.0958558
0.111704
0.0282127
0.0284554
0.0287656
0.029152
0.0296161
0.0301556
0.0307692
0.0314568
0.0322197
0.0330601
0.0339815
0.034989
0.0360893
0.037291
0.0386054
0.0400465
0.0416324
0.0433859
0.045336
0.0475203
0.0499876
0.0528019
0.0560492
0.0598467
0.0643578
0.0698144
0.0765674
0.0851145
0.0964856
0.112446
0.0283544
0.0285885
0.0288936
0.0292772
0.0297396
0.0302782
0.0308917
0.03158
0.0323442
0.0331865
0.0341105
0.0351211
0.0362249
0.0374308
0.0387499
0.0401964
0.0417881
0.0435481
0.0455055
0.0476977
0.0501737
0.0529977
0.0562557
0.060065
0.0645892
0.0700606
0.0768308
0.0853969
0.0967776
0.112806
0.0283545
0.0285887
0.0288937
0.0292773
0.0297397
0.0302783
0.0308918
0.0315801
0.0323443
0.0331866
0.0341106
0.0351212
0.036225
0.0374309
0.03875
0.0401964
0.0417882
0.0435482
0.0455055
0.0476978
0.0501738
0.0529977
0.0562558
0.0600651
0.0645893
0.0700606
0.0768308
0.0853969
0.0967776
0.112806
0.028213
0.0284558
0.028766
0.0291524
0.0296164
0.030156
0.0307695
0.0314572
0.03222
0.0330604
0.0339819
0.0349893
0.0360896
0.0372913
0.0386056
0.0400468
0.0416326
0.0433861
0.0453362
0.0475205
0.0499877
0.0528021
0.0560494
0.0598469
0.064358
0.0698146
0.0765675
0.0851145
0.0964857
0.112447
0.0279118
0.0281721
0.0284932
0.0288856
0.0293535
0.029895
0.030509
0.0311954
0.0319557
0.0327921
0.0337084
0.0347095
0.0358022
0.0369953
0.0382998
0.0397298
0.0413034
0.0430432
0.0449783
0.047146
0.0495949
0.0523891
0.0556141
0.0593869
0.0638702
0.069296
0.0760128
0.0845185
0.095856
0.111704
0.0274349
0.0277222
0.0280605
0.0284628
0.028937
0.0294821
0.0300969
0.0307817
0.0315381
0.0323686
0.033277
0.0342683
0.0353493
0.0365288
0.0378179
0.0392306
0.0407849
0.0425032
0.0444146
0.0465561
0.0489762
0.0517384
0.0549281
0.0586615
0.063101
0.0684774
0.0751369
0.0835756
0.0948466
0.110539
0.0267698
0.0270934
0.027456
0.0278729
0.0283564
0.028907
0.0295234
0.0302065
0.0309579
0.0317805
0.0326781
0.033656
0.034721
0.0358818
0.0371495
0.0385381
0.0400655
0.0417539
0.043632
0.0457368
0.0481162
0.0508334
0.0539731
0.057651
0.0620281
0.0673342
0.0739123
0.0822544
0.093421
0.108902
0.0259087
0.0262776
0.0266721
0.0271087
0.0276054
0.0281638
0.0287834
0.0294649
0.0302106
0.0310235
0.0319078
0.0328688
0.0339133
0.0350501
0.0362904
0.0376479
0.0391402
0.0407896
0.0426244
0.044681
0.047007
0.0496649
0.0527387
0.0563428
0.060637
0.0658493
0.0723185
0.0805307
0.0915461
0.106755
0.0248493
0.0252714
0.0257058
0.0261684
0.0266827
0.0272523
0.0278769
0.0285579
0.0292977
0.0300998
0.0309685
0.0319094
0.0329293
0.0340371
0.0352437
0.036563
0.0380121
0.0396132
0.0413939
0.0433905
0.0456495
0.0482328
0.0512231
0.0547338
0.0589226
0.0640149
0.0703446
0.0783897
0.0891975
0.104064
0.0235943
0.0240771
0.0245595
0.0250549
0.0255924
0.0261775
0.0268102
0.0274924
0.028227
0.0290179
0.0298695
0.0307877
0.0317794
0.0328534
0.0340207
0.0352948
0.0366928
0.0382361
0.0399522
0.0418763
0.0440543
0.0465469
0.0494356
0.0528316
0.0568906
0.0618345
0.0679909
0.0758284
0.0863647
0.100806
0.0221508
0.0227012
0.0232402
0.0237763
0.0243435
0.0249494
0.0255945
0.0262809
0.0270121
0.0277924
0.0286265
0.0295203
0.0304811
0.0315176
0.0326405
0.0338632
0.0352025
0.0366794
0.0383204
0.0401601
0.0422432
0.0446289
0.047397
0.0506566
0.05456
0.059325
0.0652718
0.0728579
0.083054
0.0969703
0.0205275
0.0211531
0.021758
0.0223438
0.0229487
0.0235823
0.0242454
0.0249405
0.0256716
0.0264433
0.0272607
0.02813
0.0290584
0.0300547
0.0311294
0.0322958
0.0335701
0.0349726
0.0365292
0.0382732
0.040248
0.0425109
0.0451394
0.0482396
0.0519601
0.0565133
0.0622113
0.0694988
0.0792804
0.092573
0.0187304
0.0194398
0.0201221
0.0207685
0.0214216
0.022092
0.0227807
0.0234908
0.0242267
0.0249935
0.0257968
0.0266428
0.0275389
0.0284938
0.0295178
0.0306238
0.0318275
0.0331484
0.0346113
0.036248
0.0381002
0.0402229
0.0426905
0.0456053
0.0491114
0.0534149
0.0588186
0.0657557
0.0750501
0.0876397
0.0167636
0.0175671
0.01834
0.0190585
0.0197724
0.0204923
0.0212177
0.0219516
0.0226992
0.0234662
0.0242586
0.025083
0.0259468
0.0268586
0.0278285
0.0288687
0.0299943
0.0312241
0.0325814
0.0340964
0.0358084
0.0377697
0.0400511
0.0427504
0.0460058
0.0500162
0.0550752
0.0616068
0.0703527
0.0822
0.0146571
0.0155699
0.016458
0.0172568
0.0180354
0.0188109
0.0195807
0.020346
0.0211117
0.0218838
0.0226688
0.0234735
0.0243055
0.0251733
0.0260869
0.0270584
0.0281022
0.0292366
0.0304837
0.031872
0.0334386
0.0352328
0.037321
0.0397954
0.0427866
0.0464837
0.0511664
0.0572441
0.0653693
0.0763922
0.0122546
0.0132758
0.0144396
0.0154196
0.0163031
0.0171506
0.0179736
0.0187763
0.0195662
0.0203513
0.0211397
0.0219394
0.0227591
0.0236078
0.0244957
0.0254349
0.0264399
0.0275284
0.0287218
0.0300462
0.0315364
0.0332379
0.0352111
0.0375392
0.0403388
0.0437823
0.048117
0.0536963
0.0610077
0.070805
0.00790132
0.00888932
0.0106521
0.0120653
0.0132622
0.014383
0.0154594
0.0164994
0.0175128
0.018509
0.0194965
0.0204838
0.0214798
0.0224938
0.0235356
0.0246167
0.0257515
0.0269576
0.0282555
0.0296686
0.0312277
0.0329747
0.034961
0.0372577
0.0399603
0.0432128
0.0472104
0.0521955
0.0583838
0.0664745
0.0600607
0.0581198
0.0539971
0.0489482
0.0436405
0.0381709
0.032534
0.0267651
0.0209233
0.0150702
0.00926439
0.00356064
-0.00199151
-0.00734879
-0.0124748
-0.01734
-0.0219214
-0.0262013
-0.030169
-0.0338184
-0.0371424
-0.0401319
-0.0428047
-0.0451666
-0.0472268
-0.0490102
-0.0505632
-0.0518714
-0.0526037
-0.0521357
0.0483706
0.048142
0.0456243
0.0418539
0.0377574
0.0335109
0.029081
0.024472
0.019725
0.0148913
0.0100251
0.00518185
0.000416572
-0.00421816
-0.00867441
-0.0129105
-0.016892
-0.0205927
-0.0239934
-0.0270822
-0.0298587
-0.0323343
-0.0345064
-0.0363876
-0.0379976
-0.0393754
-0.0405767
-0.0415193
-0.0416649
-0.0404538
0.0417161
0.0422236
0.0404624
0.0374125
0.0340431
0.0305408
0.0268606
0.0229928
0.0189664
0.0148233
0.0106101
0.00637766
0.00217968
-0.00193011
-0.0059006
-0.0096857
-0.0132463
-0.0165518
-0.0195802
-0.0223188
-0.0247635
-0.0269179
-0.0287911
-0.0303966
-0.0317544
-0.0329066
-0.0339139
-0.0346777
-0.0345828
-0.0330117
0.0371857
0.038047
0.036749
0.0342132
0.0313655
0.028382
0.0252167
0.0218579
0.0183301
0.0146704
0.0109211
0.0071303
0.00334979
-0.000366969
-0.00396794
-0.00740531
-0.0106378
-0.0136325
-0.0163658
-0.0188237
-0.0210014
-0.022902
-0.0245351
-0.0259144
-0.0270595
-0.0280122
-0.028833
-0.0294241
-0.0291635
-0.0274209
0.0338842
0.0348851
0.03387
0.0317066
0.0292499
0.0266568
0.0238818
0.0209129
0.0177716
0.0144909
0.01111
0.00767403
0.0042329
0.000839059
-0.0024557
-0.00560315
-0.00856131
-0.0112964
-0.013784
-0.0160098
-0.0179685
-0.0196635
-0.0211044
-0.0223048
-0.0232838
-0.0240812
-0.0247565
-0.0252189
-0.0248649
-0.023052
0.0313833
0.0324153
0.0315823
0.0296993
0.0275455
0.0252552
0.0227848
0.0201231
0.0172894
0.0143137
0.0112321
0.00808734
0.00492745
0.00180339
-0.00123391
-0.00413664
-0.00686284
-0.00937865
-0.0116596
-0.013691
-0.0154677
-0.016993
-0.0182764
-0.0193312
-0.0201762
-0.0208484
-0.0214059
-0.021769
-0.0213608
-0.0195258
0.0294128
0.0304284
0.0297148
0.0280498
0.0261375
0.0240905
0.0218662
0.0194548
0.0168739
0.0141506
0.0113188
0.00841891
0.00549716
0.00260294
-0.000213969
-0.00290651
-0.00543324
-0.00776057
-0.00986422
-0.0117297
-0.0133518
-0.0147338
-0.0158852
-0.0168194
-0.0175542
-0.0181245
-0.0185874
-0.0188742
-0.0184377
-0.0166068
0.0278299
0.0287894
0.0281567
0.0266637
0.0249496
0.0231037
0.021084
0.018882
0.0165139
0.0140048
0.0113861
0.00869655
0.00598034
0.0032854
0.000660261
-0.00184902
-0.00420171
-0.00636479
-0.00831434
-0.0100361
-0.0115252
-0.0127849
-0.0138246
-0.0146578
-0.0153016
-0.0157887
-0.0161752
-0.0164033
-0.0159554
-0.014143
0.0265184
0.0273998
0.0268302
0.0254791
0.0239291
0.0222528
0.0204073
0.0183846
0.0161997
0.0138758
0.0114427
0.00893683
0.00640101
0.00388154
0.00142564
-0.000921724
-0.00312069
-0.00513891
-0.006953
-0.00854912
-0.00992255
-0.0110766
-0.0120209
-0.0127688
-0.0133367
-0.0137558
-0.0140804
-0.0142633
-0.0138158
-0.0120293
0.0254052
0.0261935
0.025671
0.0244503
0.023038
0.0215067
0.0198124
0.0179462
0.015922
0.0137615
0.0114924
0.0091498
0.00677467
0.00441186
0.00210725
-9.53185e-05
-0.00215695
-0.00404605
-0.00573985
-0.00722491
-0.00849681
-0.00955901
-0.0104211
-0.0110964
-0.011601
-0.011964
-0.0122383
-0.012387
-0.0119478
-0.0101905
0.0244407
0.0251231
0.0246351
0.0235372
0.0222486
0.0208415
0.0192804
0.0175535
0.015673
0.0136587
0.0115371
0.00934161
0.00711161
0.00489049
0.00272278
0.000651153
-0.00128648
-0.00305932
-0.00464525
-0.0060313
-0.00721332
-0.00819491
-0.0089857
-0.0095989
-0.0100502
-0.010367
-0.0106004
-0.0107233
-0.0102978
-0.00857143
0.0235834
0.024162
0.0236986
0.0227049
0.0215378
0.0202388
0.0187965
0.0171957
0.0154453
0.0135641
0.011577
0.00951596
0.00741877
0.00532738
0.00328499
0.0013331
-0.000491392
-0.00215853
-0.00364684
-0.00494382
-0.00604561
-0.00695594
-0.00768441
-0.00824417
-0.00865049
-0.00892907
-0.00912972
-0.00923345
-0.00882578
-0.00713098
0.0228053
0.0232784
0.0228389
0.0219372
0.0208822
0.019684
0.0183481
0.0168631
0.0152328
0.0134744
0.0116117
0.00967505
0.00770092
0.00572975
0.0038034
0.00196218
0.000241974
-0.0013281
-0.00272723
-0.00394337
-0.00497296
-0.00581981
-0.00649348
-0.007007
-0.00737533
-0.00762259
-0.00779692
-0.00788697
-0.00750032
-0.00583765
0.0220868
0.0224506
0.0220368
0.0212203
0.0202632
0.0191666
0.0179253
0.0165474
0.0150297
0.0133862
0.01164
0.00982005
0.00796135
0.0061029
0.00428522
0.00254743
0.000924374
-0.000555677
-0.00187255
-0.00301467
-0.00397873
-0.0047686
-0.00539381
-0.00586724
-0.00620351
-0.00642521
-0.00657875
-0.00665978
-0.0062966
-0.0046673
0.0214055
0.0216669
0.0212804
0.0205391
0.0196694
0.018675
0.0175221
0.0162427
0.0148311
0.0132966
0.0116607
0.00995152
0.00820237
0.00645084
0.0047361
0.00309604
0.00156447
0.000168801
-0.00107145
-0.00214515
-0.00304922
-0.0037876
-0.0043697
-0.00480826
-0.00511757
-0.00531872
-0.00545646
-0.00553258
-0.00519521
-0.0036015
0.0207442
0.0209138
0.0205553
0.0198851
0.0190957
0.0181942
0.0171324
0.015943
0.0146324
0.0132025
0.0116725
0.0100695
0.00842557
0.00677664
0.00516054
0.0036139
0.00216944
0.000853713
-0.000314413
-0.00132425
-0.00217294
-0.00286444
-0.00340803
-0.0038163
-0.00410311
-0.00428829
-0.00441474
-0.00448965
-0.00418035
-0.00262622
0.0200929
0.0201782
0.0198498
0.019249
0.0185327
0.0177139
0.0167498
0.0156439
0.0144295
0.0131009
0.0116737
0.0101739
0.00863203
0.00708271
0.00556223
0.00410592
0.00274538
0.00150626
0.000406753
-0.000542875
-0.00133998
-0.00198852
-0.00249763
-0.00287967
-0.00314811
-0.00332158
-0.00344105
-0.00351833
-0.00323945
-0.00173123
0.019444
0.0194489
0.0191515
0.0186187
0.0179735
0.0172316
0.0163638
0.0153418
0.0142187
0.0129891
0.0116627
0.010264
0.00882245
0.00737094
0.00594425
0.00457633
0.0032976
0.00213275
0.00109928
0.000207009
-0.000541634
-0.00115059
-0.00162882
-0.00198838
-0.00224243
-0.00240838
-0.00252516
-0.00260844
-0.00236259
-0.000909455
0.0187903
0.0187161
0.0184516
0.0179858
0.0174105
0.016743
0.0159654
0.0150333
0.0139961
0.012864
0.0116376
0.0103392
0.00899722
0.00764285
0.00630924
0.00502888
0.00383089
0.00273893
0.00176975
0.000932672
0.000229924
-0.000342424
-0.000793112
-0.00113391
-0.00137751
-0.00154026
-0.00165884
-0.00175198
-0.00154211
-0.000156599
0.0181228
0.0179728
0.0177432
0.0173438
0.0168386
0.0162415
0.0155469
0.0147142
0.0137589
0.0127227
0.0115965
0.0103986
0.00915645
0.00789964
0.00665954
0.00546697
0.00434967
0.00333014
0.00242428
0.00164086
0.00098189
0.000443445
1.70344e-05
-0.000308735
-0.000546082
-0.000710208
-0.000835529
-0.000942869
-0.000772473
0.000529116
0.0174325
0.0172118
0.017019
0.0166851
0.0162495
0.0157232
0.0151076
0.014376
0.0135051
0.0125626
0.0115372
0.010441
0.00930002
0.00814229
0.00699721
0.0058938
0.00485818
0.00391153
0.00306875
0.00233803
0.00172103
0.00121389
0.000808389
0.000493591
0.000257878
8.71636e-05
-5.0381e-05
-0.00017683
-5.01508e-05
0.00114725
0.0167097
0.0164258
0.0162726
0.0160038
0.0156372
0.0151826
0.0146452
0.0140113
0.0132321
0.0123806
0.0114574
0.010465
0.00942755
0.00837153
0.00732419
0.00631246
0.0053606
0.00448822
0.00370906
0.00303051
0.00245389
0.00197537
0.0015871
0.00127869
0.00103927
0.000855856
0.000699626
0.000548431
0.000626392
0.00169542
0.0159429
0.0156073
0.0154968
0.0152941
0.0149972
0.0146165
0.014156
0.0136133
0.0129367
0.012173
0.0113541
0.0104688
0.00953835
0.00858788
0.0076423
0.00672607
0.00586123
0.00506553
0.00435123
0.00372476
0.00318697
0.0027341
0.00235878
0.00205135
0.0018018
0.00159863
0.00141597
0.00123331
0.00125651
0.00216971
0.0151162
0.0147467
0.014684
0.0145491
0.0143234
0.0140182
0.0136354
0.0131794
0.0126134
0.0119386
0.0112249
0.0104505
0.00963159
0.00879177
0.00795329
0.00713776
0.00636449
0.00564887
0.00500134
0.00442709
0.0039264
0.0034956
0.00312804
0.00281502
0.00254767
0.00231632
0.00209839
0.00187658
0.00183746
0.0025651
0.0142091
0.0138314
0.0138228
0.0137597
0.0136088
0.0133813
0.0130785
0.0127092
0.0122543
0.0116755
0.0110673
0.0104082
0.00970635
0.00898347
0.00825881
0.00755047
0.00687443
0.00624311
0.00566463
0.00514261
0.00467664
0.00426334
0.00389714
0.00357057
0.00327633
0.00300674
0.0027434
0.00247351
0.00236367
0.00287642
0.0132024
0.0128571
0.0129076
0.0129187
0.0128482
0.0127027
0.012483
0.012202
0.0118539
0.0113798
0.010877
0.0103384
0.00976023
0.00916202
0.00855966
0.00796699
0.00739571
0.00685437
0.00634806
0.00587822
0.00544361
0.00504238
0.00466982
0.00431995
0.00398771
0.00366813
0.00334769
0.00302014
0.00282983
0.00310028
0.0120632
0.0118517
0.0119765
0.0120517
0.0120579
0.011994
0.0118557
0.0116586
0.0114077
0.0110456
0.0106444
0.0102305
0.00978431
0.00932225
0.00885618
0.00839432
0.00794234
0.00750308
0.00707706
0.00666234
0.00625639
0.00586203
0.00547352
0.00508707
0.00470133
0.00431531
0.00392159
0.00352242
0.00323462
0.00323652
0.0105918
0.0107581
0.0110536
0.0111917
0.0112571
0.0112617
0.011195
0.0110686
0.0108998
0.010655
0.0103547
0.0100698
0.00976871
0.00946255
0.00915723
0.00885265
0.00854531
0.0082295
0.0078987
0.00754704
0.00717163
0.0067729
0.00635202
0.00590851
0.00544598
0.00496914
0.0044781
0.00398328
0.00356789
0.00327957
0.00814026
0.00887717
0.00962426
0.00998997
0.0101944
0.0103198
0.0103694
0.0103549
0.0103017
0.0102031
0.0100411
0.00990772
0.00977076
0.00963383
0.00949532
0.00934587
0.00917233
0.00896232
0.00870382
0.00839185
0.00803864
0.00758094
0.00709586
0.0065722
0.00601698