/*--------------------------------*- C++ -*----------------------------------*\
  =========                 |
  \\      /  F ield         | OpenFOAM: The Open Source CFD Toolbox
   \\    /   O peration     | Website:  https://openfoam.org
    \\  /    A nd           | Version:  12
     \\/     M anipulation  |
\*---------------------------------------------------------------------------*/
FoamFile
{
    format      ascii;
    class       volScalarField;
    location    "340";
    object      pPrime2Mean;
}
// * * * * * * * * * * * * * * * * * * * * * * * * * * * * * * * * * * * * * //

dimensions      [0 4 -4 0 0 0 0];

internalField   nonuniform List<scalar> 
6750
(
0.00387322
0.0038676
0.00386051
0.00385423
0.00384707
0.00387424
0.00386637
0.00385403
0.0038394
0.00382402
0.00389203
0.00388228
0.0038663
0.00384585
0.00382386
0.00392582
0.00391543
0.00389823
0.00387586
0.00385187
0.0039735
0.00396398
0.00394816
0.00392736
0.00390508
0.00403169
0.00402436
0.00401208
0.00399559
0.00397784
0.00409607
0.00409194
0.00408481
0.00407465
0.00406361
0.00416213
0.00416183
0.00416089
0.00415842
0.00415559
0.00422563
0.00422944
0.00423514
0.00424098
0.00424714
0.00428299
0.00429085
0.00430312
0.00431722
0.00433239
0.00433155
0.00434309
0.00436135
0.00438304
0.00440659
0.00436955
0.00438419
0.00440749
0.00443559
0.00446628
0.00439619
0.00441318
0.00444028
0.00447327
0.00450946
0.00441142
0.00442993
0.00445949
0.00449566
0.00453547
0.00441587
0.00443507
0.00446572
0.00450333
0.00454482
0.00441056
0.00442965
0.00446015
0.00449759
0.00453888
0.00439547
0.00441367
0.00444277
0.00447839
0.00451762
0.00436968
0.00438616
0.00441249
0.00444459
0.0044798
0.00433274
0.00434669
0.00436895
0.00439583
0.00442519
0.00428484
0.00429555
0.00431255
0.00433276
0.00435467
0.00422695
0.00423388
0.00424473
0.00425716
0.00427049
0.00416095
0.00416377
0.00416797
0.00417205
0.00417624
0.00408965
0.00408835
0.00408587
0.00408162
0.0040768
0.0040167
0.00401158
0.00400295
0.00399105
0.00397808
0.00394642
0.00393815
0.00392442
0.00390627
0.00388669
0.00388337
0.00387295
0.00385577
0.0038334
0.00380941
0.00383188
0.00382065
0.00380217
0.00377834
0.00375279
0.00379536
0.00378482
0.00376764
0.00374582
0.0037224
0.00377591
0.00376733
0.0037539
0.00373798
0.00372127
0.00377423
0.00376804
0.00376006
0.00375276
0.00374472
0.00382132
0.00379252
0.00373746
0.00365919
0.00355915
0.00343838
0.00329729
0.00313625
0.00295681
0.0027614
0.00255215
0.00233432
0.00211256
0.00189228
0.00167889
0.00147726
0.00129129
0.00112366
0.00097564
0.00084709
0.000736785
0.000644573
0.000567402
0.000503242
0.000450243
0.000406635
0.000370942
0.000341785
0.000318179
0.000303035
0.00382639
0.00377854
0.00370777
0.00361641
0.00350535
0.00337531
0.00322714
0.00306217
0.00288253
0.00269066
0.00248827
0.00228076
0.00207167
0.00186538
0.00166613
0.00147767
0.00130301
0.00114424
0.0010025
0.00087812
0.000770852
0.00067833
0.000600285
0.000534756
0.000480055
0.000434737
0.00039744
0.000366755
0.000341154
0.000321235
0.00381342
0.00375004
0.00366688
0.00356619
0.00344782
0.00331239
0.00316088
0.00299487
0.0028168
0.00262869
0.00243298
0.00223453
0.0020362
0.00184162
0.00165415
0.00147669
0.00131155
0.00116038
0.00102413
0.000903094
0.000797012
0.000705192
0.000626593
0.000559883
0.000503698
0.000456721
0.000417699
0.000385315
0.000358512
0.000337925
0.00379148
0.0037179
0.003626
0.00351877
0.00339606
0.00325806
0.00310565
0.00294057
0.00276518
0.00258092
0.00239131
0.00220012
0.00200996
0.00182399
0.00164505
0.00147556
0.00131741
0.00117201
0.00104017
0.000922195
0.000817926
0.000726937
0.000648351
0.000581094
0.000523993
0.000475818
0.000435258
0.000401078
0.000372694
0.000352787
0.00376664
0.00368597
0.00358752
0.0034753
0.00334975
0.00321064
0.00305876
0.00289567
0.0027235
0.00254333
0.0023592
0.00217393
0.00199012
0.00181061
0.00163796
0.00147436
0.00132151
0.00118068
0.00105261
0.000937579
0.000835449
0.000745776
0.00066782
0.000600631
0.000543131
0.000494143
0.000452356
0.000416442
0.000386622
0.000367334
0.00374283
0.0036568
0.00355348
0.00343744
0.0033098
0.00317048
0.00301982
0.00285921
0.00269031
0.00251416
0.00233472
0.00215423
0.00197525
0.00180049
0.0016324
0.00147307
0.00132419
0.00118697
0.00106209
0.000949788
0.000849878
0.00076185
0.000684957
0.000618267
0.000560735
0.000511246
0.000468477
0.000431169
0.000400172
0.00038158
0.00372244
0.00363228
0.00352514
0.00340631
0.00327719
0.00313802
0.0029889
0.00283087
0.00266493
0.00249246
0.00231686
0.00214006
0.00196461
0.00179316
0.00162816
0.00147178
0.00132574
0.00119125
0.00106899
0.000959128
0.000861375
0.000775122
0.000699527
0.000633604
0.000576305
0.000526563
0.000483097
0.000444734
0.000412823
0.000395013
0.00370745
0.00361404
0.00350383
0.00338276
0.00325278
0.00311382
0.00296625
0.00281056
0.00264709
0.00247775
0.00230504
0.00213085
0.00195771
0.0017883
0.00162515
0.00147056
0.00132635
0.0011938
0.0010736
0.000965813
0.000870061
0.000785581
0.000711394
0.000646418
0.000589588
0.000539775
0.000495867
0.000456803
0.000424216
0.000407152
0.00369966
0.0036036
0.00349068
0.00336765
0.00323699
0.00309832
0.00295207
0.00279824
0.00263672
0.00246971
0.0022989
0.00212623
0.00195425
0.0017857
0.00162327
0.00146943
0.00132615
0.00119481
0.00107608
0.000969982
0.000875999
0.000793207
0.000720465
0.000656571
0.00060041
0.000550804
0.000506728
0.000467159
0.000434069
0.000417613
0.00370084
0.00360244
0.00348688
0.00336187
0.00323048
0.0030921
0.0029467
0.00279402
0.00263387
0.00246821
0.00229827
0.00212602
0.00195405
0.00178523
0.00162246
0.0014684
0.00132521
0.00119435
0.00107653
0.000971699
0.000879209
0.000797968
0.000726664
0.000663961
0.000608608
0.000559486
0.000515476
0.000475577
0.000442107
0.000426061
0.00371278
0.00361209
0.00349368
0.00336636
0.00323388
0.0030955
0.0029505
0.0027982
0.00263869
0.00247333
0.00230314
0.00213016
0.00195705
0.00178684
0.00162269
0.00146747
0.00132355
0.00119248
0.00107499
0.000970984
0.000879678
0.00079982
0.000729919
0.00066848
0.000614124
0.000565685
0.000521909
0.000481825
0.000448072
0.000432212
0.00373747
0.00363423
0.00351249
0.00338226
0.00324816
0.00310927
0.00296397
0.00281124
0.00265147
0.00248526
0.00231366
0.00213873
0.00196326
0.00179053
0.00162394
0.00146664
0.00132116
0.00118918
0.00107145
0.000967817
0.000877376
0.000798716
0.00073017
0.000670061
0.000616831
0.00056925
0.000525817
0.000485672
0.000451744
0.000435855
0.0037772
0.00367086
0.00354509
0.00341115
0.00327478
0.00313434
0.00298782
0.00283386
0.00267267
0.00250439
0.00233008
0.0021519
0.00197281
0.00179635
0.00162624
0.00146589
0.00131802
0.00118442
0.00106587
0.000962154
0.000872259
0.000794609
0.000727353
0.000668602
0.000616579
0.000569886
0.000526975
0.000486925
0.000452957
0.000436852
0.00383474
0.00372437
0.00359364
0.00345489
0.00331513
0.00317209
0.00302321
0.00286694
0.002703
0.00253126
0.00235282
0.00216995
0.00198585
0.0018044
0.00162963
0.00146522
0.00131408
0.00117813
0.00105816
0.000953928
0.000864272
0.000787451
0.000721403
0.000663988
0.000613251
0.000567522
0.000525243
0.000485466
0.000451639
0.000435178
0.00391342
0.00379781
0.00366089
0.00351592
0.00337145
0.00322441
0.0030717
0.00291174
0.00274346
0.00256664
0.00238242
0.00219325
0.00200264
0.00181481
0.00163416
0.00146462
0.0013093
0.00117023
0.00104825
0.000943051
0.000853343
0.000777172
0.000712233
0.000656145
0.000606708
0.000562035
0.000520553
0.000481283
0.000447843
0.000430971
0.00401744
0.00389513
0.00375055
0.00359765
0.00344675
0.00329386
0.00313561
0.00297005
0.00279543
0.00261152
0.00241958
0.00222226
0.00202345
0.00182776
0.0016399
0.00146408
0.00130361
0.00116064
0.00103604
0.000929425
0.000839359
0.000763642
0.000699707
0.000644938
0.000596847
0.000553375
0.000512935
0.000474501
0.000441806
0.00042462
0.00415232
0.00402156
0.00386762
0.00370465
0.00354512
0.00338403
0.00321803
0.00304423
0.00286069
0.0026672
0.00246517
0.00225756
0.00204865
0.00184342
0.0016469
0.00146357
0.00129695
0.00114929
0.00102145
0.000912959
0.00082219
0.000746709
0.000683669
0.0006302
0.000583614
0.000541608
0.000502587
0.000465482
0.000434073
0.000416895
0.00432548
0.0041842
0.00401881
0.00384287
0.00367182
0.00349964
0.00332262
0.00313721
0.00294148
0.00273528
0.00252029
0.00229985
0.00207864
0.00186198
0.0016552
0.00146305
0.00128923
0.00113608
0.00100439
0.000893543
0.000801724
0.000726263
0.000664051
0.00061195
0.000567082
0.000526993
0.000489993
0.000454986
0.000425707
0.000409199
0.00454716
0.00439257
0.00421295
0.00402023
0.0038338
0.00364654
0.00345404
0.00325267
0.00304055
0.00281774
0.00258628
0.00234997
0.00211385
0.0018836
0.00166481
0.00146246
0.00128039
0.0011209
0.000984728
0.000871059
0.000777881
0.000702296
0.00064095
0.000590435
0.000547696
0.000510196
0.00047619
0.000444501
0.000418648
0.000403946
0.00483148
0.00465959
0.00446187
0.00424706
0.00403995
0.00383186
0.00361817
0.00339514
0.00316126
0.00291693
0.00266469
0.0024088
0.00215471
0.00190841
0.00167573
0.00146177
0.00127035
0.00110371
0.000962398
0.000845461
0.000750689
0.000674986
0.000614768
0.000566386
0.000526597
0.000492779
0.000463266
0.000436846
0.000416414
0.000405321
0.00519816
0.00500337
0.00478195
0.00453756
0.00430194
0.00406518
0.00382246
0.00357033
0.00330771
0.00303563
0.00275723
0.00247729
0.00220167
0.00193658
0.00168797
0.0014609
0.00125905
0.00108442
0.000937397
0.000816836
0.000720387
0.000644813
0.000586351
0.000541159
0.000505806
0.000477642
0.000455061
0.000437112
0.000425252
0.000420696
0.00567495
0.00544864
0.00519566
0.00491083
0.00463566
0.00435923
0.00407672
0.0037854
0.00348489
0.00317708
0.00286585
0.00255652
0.00225524
0.0019683
0.00170154
0.00145978
0.00124637
0.00106301
0.000909807
0.000785462
0.000687535
0.00061274
0.00055726
0.000517162
0.000488892
0.000469816
0.000458447
0.000454221
0.000456025
0.000463007
0.00629929
0.00602918
0.0057338
0.00539276
0.00506244
0.00473084
0.00439347
0.00404918
0.00369874
0.00334508
0.00299283
0.00264774
0.002316
0.00200374
0.0017164
0.00145827
0.00123221
0.00103947
0.00087985
0.000751893
0.000653157
0.00058047
0.000530181
0.000498484
0.000481882
0.000477818
0.000484926
0.000503264
0.000526718
0.0005536
0.00711836
0.00678891
0.00643602
0.0060173
0.00560998
0.00520115
0.0047882
0.00437249
0.00395643
0.00354412
0.00314081
0.00275232
0.00238455
0.00204302
0.00173238
0.00145614
0.00121638
0.00101382
0.000847901
0.000717045
0.000618949
0.000550808
0.000509515
0.000491823
0.000494668
0.000515629
0.000553376
0.000608315
0.000665191
0.000724022
0.00818713
0.00777899
0.00735088
0.00682673
0.00631253
0.00579562
0.0052792
0.00476786
0.00426614
0.00377924
0.00331261
0.00287163
0.00246131
0.002086
0.0017491
0.0014529
0.0011985
0.000985929
0.000814297
0.000682054
0.000587276
0.000527921
0.000501986
0.000507483
0.00054239
0.000604611
0.000691947
0.000803946
0.000909876
0.00101516
0.0095621
0.00905179
0.0085262
0.0078613
0.00720047
0.00653736
0.00588296
0.00524666
0.00463541
0.00405516
0.00351093
0.00300693
0.00254657
0.00213233
0.00176576
0.00144749
0.00117739
0.000954748
0.00077848
0.000647369
0.000560336
0.000516718
0.00051637
0.000559416
0.000645564
0.000772957
0.000937097
0.00113324
0.00130697
0.00147538
0.0112735
0.0106308
0.00997438
0.00912904
0.00828105
0.00743472
0.0066093
0.00581981
0.00507536
0.00438224
0.00374457
0.00316494
0.00264465
0.00218392
0.00178208
0.00143789
0.00114989
0.000916747
0.000737465
0.000611637
0.000539656
0.000522892
0.000563639
0.00066451
0.000827032
0.00104904
0.00132216
0.00163367
0.00190199
0.00215407
0.0134397
0.0125759
0.0117063
0.0106491
0.00959441
0.00854857
0.00753433
0.00656983
0.00566673
0.00483317
0.00407418
0.00339225
0.00278772
0.00225939
0.00180503
0.0014221
0.00110831
0.000862128
0.000683047
0.000571737
0.000529968
0.000560401
0.000666063
0.000849371
0.0011107
0.00144616
0.00184538
0.00229418
0.00271327
0.00311519
0.016804
0.0156894
0.0145635
0.0132588
0.0119437
0.0106163
0.0093077
0.00804748
0.00685897
0.00576036
0.00476367
0.0038752
0.00309665
0.00242663
0.00186218
0.00140017
0.0010384
0.00077614
0.000614487
0.000555957
0.000603304
0.000758082
0.00101957
0.00138236
0.00183551
0.00236107
0.00293621
0.00354659
0.0040808
0.00460999
0.0272986
0.0252996
0.0230298
0.0207219
0.0184204
0.016125
0.013887
0.0117556
0.00977117
0.00796511
0.0063576
0.00495746
0.00376486
0.00277484
0.0019808
0.00137765
0.000963938
0.000742994
0.000722072
0.000910572
0.00131736
0.00194705
0.0027956
0.00384837
0.00507922
0.00645064
0.00791588
0.00946278
0.011049
0.0124807
0.00383155
0.00381136
0.00379416
0.00377771
0.00376296
0.00375099
0.00374318
0.00374103
0.00374609
0.00376006
0.00378474
0.0038222
0.00387485
0.00394562
0.00403806
0.00415665
0.00430721
0.00449767
0.00473906
0.00504693
0.00544332
0.00595932
0.00663689
0.00752771
0.00869081
0.0101904
0.0120955
0.0146127
0.0184268
0.0295323
0.00380932
0.0037945
0.00378193
0.00377153
0.00376496
0.00376295
0.00376641
0.00377644
0.00379437
0.00382178
0.00386053
0.00391284
0.00398137
0.00406937
0.00418086
0.0043209
0.00449617
0.00471565
0.00499171
0.00534156
0.00578936
0.00636873
0.00712452
0.00811135
0.00939088
0.0110377
0.0131723
0.0160429
0.0201886
0.0319331
0.00381093
0.00380736
0.00380545
0.00380541
0.00380904
0.00381736
0.00383158
0.003853
0.00388309
0.00392354
0.00397632
0.00404379
0.00412879
0.00423483
0.00436627
0.00452873
0.00472963
0.00497892
0.00529024
0.00568232
0.00618121
0.00682284
0.00765459
0.00873312
0.0101216
0.0119046
0.0142487
0.0174419
0.0218212
0.0345961
0.00384317
0.00385098
0.00386029
0.00387129
0.00388603
0.00390577
0.00393184
0.00396569
0.00400896
0.00406346
0.00413135
0.00421516
0.00431795
0.00444348
0.00459648
0.00478303
0.00501119
0.0052917
0.00563899
0.00607271
0.00661983
0.00731707
0.00821206
0.00935994
0.0108207
0.0126874
0.0151887
0.018712
0.0232531
0.0374565
0.00390179
0.00391996
0.00394005
0.00396206
0.00398815
0.00401982
0.00405855
0.00410589
0.00416357
0.00423356
0.00431815
0.00442007
0.0045426
0.00468978
0.00486671
0.00507993
0.00533809
0.00565255
0.00603835
0.00651563
0.00711158
0.00786274
0.00881537
0.0100207
0.0115327
0.0134517
0.0160822
0.0199674
0.0245505
0.040482
0.00398073
0.00400804
0.00403816
0.00407089
0.00410835
0.00415216
0.00420397
0.00426543
0.00433838
0.00442489
0.00452741
0.0046488
0.00479257
0.004963
0.00516551
0.00540706
0.00569674
0.00604637
0.00647128
0.00699164
0.00763422
0.00843432
0.00943547
0.0106829
0.0122227
0.0141621
0.0169001
0.0212229
0.0257215
0.0437856
0.00407324
0.00410849
0.00414774
0.00419069
0.0042393
0.00429523
0.00436021
0.00443601
0.00452457
0.0046281
0.00474912
0.00489067
0.00505638
0.00525077
0.0054795
0.00574987
0.00607127
0.0064557
0.00691853
0.00747956
0.00816459
0.00900704
0.0100467
0.0113212
0.0128668
0.0147974
0.0176238
0.0225049
0.0267986
0.0475262
0.00417229
0.0042144
0.00426181
0.00431426
0.00437352
0.00444121
0.0045191
0.00460902
0.00471301
0.00483337
0.00497274
0.00513426
0.00532167
0.00553964
0.00579407
0.00609243
0.00644425
0.00686154
0.00735945
0.00795718
0.0086793
0.00955701
0.0106259
0.0119149
0.013448
0.0153447
0.0182386
0.0238384
0.0278261
0.0518741
0.00427099
0.00431898
0.00437354
0.00443462
0.00450376
0.00458251
0.00467262
0.00477597
0.00489464
0.005031
0.00518778
0.0053682
0.00557609
0.00581623
0.00609464
0.00641887
0.00679846
0.00724527
0.00777413
0.00840353
0.0091568
0.010063
0.0111536
0.0124477
0.013955
0.015798
0.0187336
0.0252407
0.0288581
0.0569665
0.00436311
0.00441606
0.00447679
0.00454547
0.00462345
0.00471222
0.00481346
0.00492906
0.00506111
0.00521202
0.00538456
0.00558201
0.00580829
0.00606824
0.0063679
0.00671482
0.00711844
0.00759044
0.00814529
0.0088008
0.00957924
0.010508
0.0116148
0.0129082
0.0143814
0.0161582
0.019105
0.0267153
0.0299506
0.0628408
0.00444351
0.00450055
0.00456643
0.00464157
0.00472716
0.00482459
0.0049355
0.00506171
0.00520534
0.0053688
0.00555487
0.00576687
0.00600878
0.00628545
0.00660289
0.0069686
0.00739188
0.00788422
0.00845975
0.00913572
0.00993361
0.0108798
0.011999
0.0132891
0.0147246
0.016431
0.0193577
0.0282429
0.0311434
0.0693541
0.00450844
0.0045687
0.0046387
0.00471905
0.00481082
0.00491532
0.00503411
0.00516898
0.005322
0.00549558
0.00569255
0.00591622
0.00617058
0.00646046
0.00679183
0.00717209
0.00761043
0.00811819
0.00870917
0.00940021
0.0102123
0.0111713
0.0123003
0.0135867
0.0149852
0.0166247
0.0195055
0.0297723
0.0324355
0.0761039
0.00455563
0.00461827
0.00469133
0.00477558
0.00487199
0.00498178
0.00510646
0.00524777
0.00540777
0.00558887
0.00579389
0.00602614
0.00628958
0.00658902
0.00693037
0.00732098
0.00776995
0.00828846
0.00889008
0.00959133
0.0104129
0.0113808
0.0125171
0.0138006
0.0151659
0.0167485
0.0195689
0.031216
0.0337643
0.0824491
0.00458427
0.00464845
0.00472352
0.00481032
0.00490976
0.00502301
0.0051515
0.00529698
0.00546149
0.00564745
0.00585765
0.00609539
0.00636459
0.00667004
0.00701763
0.00741467
0.0078702
0.00839527
0.00900331
0.00971059
0.0105377
0.011511
0.0126524
0.0139339
0.0152729
0.0168132
0.0195717
0.0324286
0.0349731
0.0875954
0.00459485
0.00465978
0.00473582
0.00482387
0.00492476
0.00503964
0.00516994
0.00531738
0.00548403
0.00567228
0.00588491
0.00612519
0.00639704
0.00670524
0.0070557
0.00745571
0.00791428
0.0084424
0.00905339
0.00976344
0.0105931
0.011569
0.0127133
0.0139944
0.0153192
0.016837
0.0195484
0.0331254
0.0357359
0.0905274
0.00458882
0.00465377
0.00472984
0.0048179
0.00491879
0.00503364
0.0051639
0.00531128
0.00547786
0.00566602
0.00587853
0.00611866
0.00639034
0.00669838
0.00704872
0.00744867
0.00790725
0.00843546
0.00904661
0.0097569
0.010587
0.0115633
0.0127084
0.0139901
0.0153154
0.016834
0.0195416
0.0331128
0.0357269
0.0906397
0.00456613
0.0046304
0.00470556
0.00479245
0.0048919
0.00500509
0.00513348
0.00527881
0.00544314
0.00562885
0.00583871
0.00607602
0.00634474
0.00664974
0.00699699
0.00739388
0.00784947
0.00837483
0.00898336
0.00969141
0.0105197
0.0114945
0.0126379
0.0139213
0.0152619
0.0168042
0.0195527
0.0323949
0.0349493
0.0879172
0.0045255
0.0045883
0.00466156
0.00474599
0.00484251
0.00495231
0.00507691
0.00521805
0.00537779
0.00555853
0.00576304
0.00599465
0.0062574
0.00655617
0.00689703
0.00728743
0.00773654
0.00825558
0.00885811
0.00956071
0.0103842
0.0113548
0.0124942
0.0137807
0.0151486
0.0167345
0.0195417
0.0311727
0.0337344
0.0829393
0.00446672
0.00452722
0.00459754
0.00467824
0.00477028
0.00487494
0.00499376
0.00512852
0.00528128
0.00545444
0.00565081
0.00587373
0.00612725
0.00641635
0.00674714
0.00712717
0.00756576
0.0080743
0.00866662
0.00935963
0.0101744
0.011137
0.0122699
0.0135602
0.0149627
0.0166069
0.019476
0.0297326
0.0324086
0.0767155
0.00439085
0.00444823
0.00451457
0.00459024
0.00467631
0.00477411
0.00488523
0.00501149
0.00515495
0.005318
0.00550347
0.00571468
0.00595572
0.00623157
0.00654843
0.00691395
0.00733758
0.00783093
0.00840818
0.00908666
0.0098879
0.0108382
0.0119618
0.0132564
0.0146977
0.0164113
0.0193326
0.0282184
0.0311271
0.0700454
0.00430041
0.00435384
0.00441518
0.0044846
0.00456329
0.00465266
0.00475436
0.0048702
0.00500225
0.0051529
0.00532492
0.00552164
0.00574708
0.00600626
0.00630539
0.0066522
0.00705627
0.00752945
0.00808628
0.00874465
0.00952677
0.0104598
0.0115711
0.0128696
0.0143507
0.0161388
0.0190908
0.0267141
0.0299511
0.0635754
0.00419934
0.00424799
0.00430337
0.00436541
0.00443549
0.0045151
0.00460592
0.00470978
0.0048287
0.00496503
0.00512148
0.00530131
0.0055085
0.00574798
0.00602593
0.00635013
0.00673024
0.0071783
0.00770923
0.00834155
0.00909845
0.0100088
0.0111037
0.0124035
0.0139215
0.0157813
0.0187357
0.0252671
0.0288802
0.0577166
0.00409288
0.00413592
0.00418439
0.00423807
0.00429853
0.00436735
0.00444622
0.00453695
0.0046415
0.00476212
0.00490145
0.00506264
0.00524954
0.00546697
0.00572101
0.00601935
0.00637169
0.00679019
0.00729006
0.00789046
0.00861579
0.009497
0.0105699
0.0118655
0.0134128
0.0153333
0.0182603
0.0238928
0.0278743
0.0526214
0.00398728
0.0040238
0.00406445
0.00410892
0.00415902
0.00421636
0.00428261
0.00435952
0.00444899
0.00455313
0.00467447
0.004816
0.00498141
0.00517534
0.00540368
0.00567396
0.00599578
0.00638124
0.00684574
0.00740897
0.00809653
0.00894175
0.00998513
0.0112676
0.0128312
0.0147936
0.0176662
0.0225855
0.0268773
0.0482622
0.0038894
0.00391838
0.00395026
0.00398484
0.00402408
0.00406957
0.00412292
0.00418578
0.00425995
0.00434743
0.00445059
0.00457224
0.00471588
0.00488591
0.00508796
0.00532929
0.00561919
0.0059696
0.00639579
0.00691775
0.00756211
0.00836429
0.00936915
0.0106261
0.0121882
0.0141674
0.0169623
0.021327
0.0258356
0.0445108
0.00380624
0.00382649
0.0038487
0.00387284
0.00390094
0.00393447
0.00397493
0.00402387
0.00408297
0.00415414
0.00423958
0.00434192
0.00446442
0.0046112
0.00478759
0.00500043
0.00525862
0.0055736
0.0059603
0.00643866
0.0070358
0.00778868
0.00874541
0.00996213
0.0115008
0.0134668
0.0161622
0.020093
0.0247051
0.041204
0.00374448
0.00375477
0.00376648
0.00377978
0.0037966
0.00381822
0.00384602
0.00388145
0.0039261
0.00398176
0.00405049
0.00413471
0.00423745
0.00436254
0.00451492
0.00470101
0.0049291
0.00520999
0.00555797
0.00599249
0.00654063
0.00723982
0.00813999
0.00930169
0.0107932
0.0127127
0.0152843
0.0188581
0.0234536
0.0381878
0.00371013
0.00370938
0.00371008
0.0037123
0.00371782
0.00372776
0.00374339
0.00376603
0.00379715
0.0038384
0.0038917
0.00395934
0.00404415
0.00414968
0.00428053
0.00444255
0.00464343
0.00489318
0.00520524
0.00559831
0.00609875
0.00674347
0.00758244
0.00867786
0.0101007
0.0119405
0.014358
0.0176085
0.0220721
0.0353503
0.00370739
0.00369571
0.00368568
0.00367721
0.00367202
0.003671
0.00367517
0.00368568
0.0037039
0.0037314
0.00377004
0.00382205
0.00389014
0.00397761
0.00408865
0.00422851
0.00440404
0.00462429
0.0049016
0.00525328
0.00570399
0.00628848
0.00705417
0.00806088
0.0093768
0.0110809
0.0132885
0.0162236
0.0204791
0.0327067
0.00373048
0.00371307
0.00369751
0.00368206
0.00366779
0.0036559
0.00364782
0.0036451
0.0036494
0.00366248
0.0036862
0.00372272
0.00377455
0.00384471
0.00393688
0.00405561
0.0042068
0.00439846
0.0046419
0.0049529
0.00535398
0.00587734
0.00656729
0.00748027
0.00867999
0.0102345
0.0122106
0.0147997
0.0187425
0.0303203
0.0280775
0.0260439
0.0237073
0.0213142
0.0189241
0.0165446
0.0142302
0.0120322
0.00999161
0.00813998
0.00649686
0.00507011
0.00385879
0.00285684
0.00205675
0.00145266
0.00104261
0.000829663
0.000820887
0.00102545
0.00145186
0.002104
0.00297652
0.00405285
0.00530424
0.00669028
0.00816158
0.00970462
0.0112758
0.0126902
0.0171339
0.0160278
0.0148886
0.0135478
0.0121901
0.0108214
0.00947575
0.00818454
0.00697147
0.00585428
0.00484413
0.00394637
0.00316179
0.00248825
0.00192218
0.00145995
0.00109888
0.000837771
0.000677295
0.00061961
0.000667145
0.000821184
0.00108077
0.00144029
0.00188859
0.00240738
0.00297397
0.00357493
0.00409382
0.00461548
0.0136353
0.0127859
0.0119182
0.0108467
0.00976953
0.00869938
0.00766188
0.00667707
0.00575746
0.0049112
0.00414293
0.00345451
0.00284567
0.0023146
0.00185856
0.00147449
0.00115957
0.000911635
0.000729534
0.000613294
0.000564165
0.000584531
0.000677476
0.000845831
0.00109073
0.00140927
0.00179253
0.00222825
0.00263523
0.00303373
0.0113897
0.0107551
0.0100998
0.00924573
0.00838558
0.00752707
0.00669061
0.00589186
0.00514007
0.00444143
0.00379984
0.00321759
0.00269568
0.00223405
0.00183173
0.00148715
0.00119844
0.000963703
0.000781315
0.000650275
0.000570614
0.000543763
0.000572604
0.000660752
0.000810843
0.0010216
0.0012852
0.00158932
0.00185381
0.00210602
0.00960682
0.00909976
0.00857294
0.00790358
0.00723946
0.00657514
0.00592097
0.00528564
0.00467556
0.0040964
0.00355312
0.00304993
0.00259029
0.00217671
0.00181066
0.00149262
0.00122215
0.000998096
0.00081886
0.000682785
0.000588636
0.000536068
0.000525811
0.000559232
0.000637237
0.000758681
0.000918996
0.00111267
0.00128592
0.00145419
0.00817826
0.00777126
0.00734161
0.00681671
0.006305
0.00579404
0.00528514
0.00478153
0.0042868
0.00380565
0.00334346
0.00290576
0.00249782
0.00212419
0.00178838
0.0014926
0.00123776
0.00102358
0.000848826
0.000711758
0.000610518
0.000543538
0.000509662
0.000507941
0.000537247
0.000595953
0.000681722
0.000793317
0.000899946
0.00100541
0.00707336
0.00674518
0.00639205
0.00597553
0.0055739
0.00517411
0.00477198
0.0043674
0.00396158
0.00355792
0.00316142
0.00277802
0.0024139
0.00207486
0.00176574
0.00149003
0.00124973
0.00104535
0.000876237
0.000740846
0.000637142
0.00056284
0.000515514
0.000492602
0.000491532
0.000510113
0.000546945
0.000602109
0.000660413
0.000720741
0.00623146
0.0059636
0.00566958
0.00533253
0.00500914
0.00468752
0.0043619
0.00402994
0.00369122
0.00334782
0.00300394
0.00266528
0.00233826
0.00202928
0.00174396
0.00148662
0.00126007
0.00106554
0.000902896
0.000770898
0.000667504
0.000590045
0.000535377
0.000500068
0.000480805
0.000475058
0.000481408
0.000499852
0.000524623
0.000553354
0.00559333
0.00536967
0.00511908
0.004839
0.0045711
0.0043046
0.00403377
0.00375493
0.00346665
0.00316994
0.00286808
0.00256622
0.00227059
0.00198772
0.00172359
0.00148305
0.00126946
0.00108458
0.000928732
0.000800962
0.0006993
0.000620927
0.000562392
0.000519939
0.000490004
0.000469817
0.000457791
0.000453332
0.00045575
0.000463937
0.00510756
0.0049153
0.00469674
0.00445766
0.00422913
0.00400189
0.00377039
0.00353048
0.00328015
0.00301956
0.0027512
0.00247953
0.00221039
0.00195013
0.00170483
0.00147955
0.001278
0.00110232
0.000953167
0.000829845
0.000730497
0.000652324
0.000591841
0.000545267
0.00050904
0.000480274
0.000457169
0.000438663
0.000426636
0.000422355
0.0047347
0.00456496
0.00437018
0.00416058
0.00396044
0.00376142
0.00355843
0.00334721
0.00312545
0.00289278
0.00265102
0.00240403
0.00215714
0.00191639
0.00168769
0.00147615
0.00128562
0.00111849
0.000975645
0.000856611
0.000759683
0.000682188
0.000620761
0.00057175
0.000531707
0.000497703
0.000467782
0.000440595
0.000419383
0.000407773
0.0044459
0.0042929
0.00411613
0.00392841
0.0037488
0.00357012
0.00338786
0.00319783
0.00299755
0.00278633
0.00256558
0.00233865
0.00211037
0.00188633
0.00167217
0.00147285
0.00129225
0.00113287
0.000995771
0.000880656
0.000785996
0.000709298
0.000647398
0.000596843
0.000554332
0.000516977
0.000482656
0.000450086
0.000423046
0.00040726
0.00422099
0.00408056
0.00391775
0.00374657
0.00358204
0.0034183
0.0032511
0.00307661
0.00289232
0.00269746
0.0024932
0.00228247
0.00206963
0.0018598
0.00165821
0.00146962
0.00129782
0.00114533
0.00101333
0.000901659
0.000808977
0.000732992
0.000670769
0.000619084
0.000574791
0.000535056
0.000497863
0.000461958
0.00043129
0.000413361
0.00404567
0.00391494
0.00376325
0.00360484
0.00345162
0.0032987
0.00314226
0.00297892
0.00280633
0.00262381
0.00243238
0.00223467
0.00203454
0.00183665
0.0016458
0.00146648
0.00130233
0.00115585
0.00102826
0.000919521
0.000828462
0.000752984
0.000690368
0.000637645
0.000591854
0.000550365
0.000511278
0.000473362
0.00044056
0.000421843
0.00390954
0.00378658
0.003644
0.0034955
0.0033507
0.00320556
0.00305654
0.00290094
0.00273672
0.00256338
0.00238188
0.00219452
0.00200474
0.00181673
0.00163491
0.00146346
0.00130585
0.0011645
0.00104063
0.00093431
0.000844486
0.000769233
0.000706063
0.000652254
0.000605082
0.00056223
0.000521863
0.000482813
0.000448927
0.000430304
0.00380504
0.00368843
0.00355333
0.00341252
0.00327386
0.00313409
0.00298997
0.00283947
0.00268113
0.00251453
0.00234059
0.00216135
0.00197986
0.00179989
0.00162552
0.00146063
0.00130849
0.00117141
0.00105061
0.000946179
0.000857187
0.00078187
0.000717948
0.000662948
0.000614481
0.000570496
0.000529245
0.000489643
0.000455367
0.00043736
0.00372659
0.00361508
0.00348598
0.00335109
0.0032167
0.00308032
0.00293937
0.00279204
0.00263766
0.0024759
0.00230758
0.00213454
0.00195953
0.00178598
0.00161762
0.00145807
0.00131038
0.00117676
0.00105837
0.000955317
0.000866764
0.000791097
0.000726248
0.000670005
0.000620291
0.00057532
0.000533444
0.000493651
0.000459403
0.000442199
0.00366982
0.00356228
0.00343788
0.00330735
0.00317581
0.00304143
0.0029023
0.00275678
0.00260485
0.00244635
0.00228201
0.00211352
0.00194341
0.0017748
0.00161116
0.00145582
0.00131165
0.0011807
0.00106409
0.00096192
0.000873422
0.000797146
0.000731243
0.000673757
0.000622834
0.000576983
0.000534638
0.000494853
0.00046084
0.000444363
0.0036312
0.00352667
0.00340593
0.00327852
0.00314871
0.00301532
0.00287698
0.00273234
0.00258158
0.00242499
0.00226319
0.00209779
0.00193117
0.00176621
0.00160611
0.00145395
0.0013124
0.00118339
0.00106793
0.000966153
0.000877347
0.000800227
0.000733158
0.000674417
0.000622378
0.000575741
0.000533003
0.00049333
0.000459638
0.000443671
0.00360779
0.00350557
0.00338772
0.00326261
0.00313373
0.00300055
0.00286217
0.00271769
0.00256701
0.0024111
0.00225056
0.00208696
0.00192256
0.00176007
0.00160242
0.00145249
0.00131272
0.00118491
0.00107001
0.000968139
0.000878682
0.0008005
0.000732171
0.000672185
0.000619097
0.000571676
0.000528698
0.000489211
0.000455872
0.000440142
0.00359719
0.0034969
0.00338142
0.00325809
0.00312971
0.0029962
0.00285711
0.00271202
0.00256052
0.00240417
0.00224373
0.00208073
0.00191739
0.00175626
0.00160006
0.00145143
0.00131264
0.00118533
0.00107039
0.000967958
0.00087751
0.000798063
0.000728385
0.000667161
0.000613122
0.000565074
0.000521923
0.000482682
0.000449716
0.000433925
0.00359733
0.00349896
0.00338564
0.00326382
0.00313579
0.00300156
0.00286123
0.00271476
0.0025617
0.00240384
0.00224241
0.00207892
0.00191554
0.00175472
0.001599
0.00145079
0.00131217
0.00118466
0.0010691
0.000965644
0.000873874
0.000792966
0.000721868
0.000659431
0.000604558
0.000556034
0.000512839
0.000473953
0.000441402
0.000425277
0.0036063
0.00351021
0.00339912
0.00327881
0.00315114
0.00301617
0.0028741
0.0027255
0.00257027
0.00240991
0.0022465
0.00208147
0.001917
0.00175546
0.00159922
0.00145053
0.00131128
0.00118288
0.00106612
0.00096119
0.000867782
0.000785236
0.000712669
0.000649084
0.000593449
0.000544674
0.000501654
0.000463243
0.000431204
0.000414504
0.00362224
0.00352911
0.00342069
0.00330218
0.00317503
0.00303933
0.00289533
0.00274401
0.00258605
0.00242239
0.00225604
0.00208847
0.00192185
0.00175853
0.00160076
0.00145063
0.0013099
0.0011799
0.00106136
0.000954534
0.000859216
0.000774899
0.000700853
0.000636199
0.000579958
0.000531145
0.000488468
0.000450788