/*--------------------------------*- C++ -*----------------------------------*\
  =========                 |
  \\      /  F ield         | OpenFOAM: The Open Source CFD Toolbox
   \\    /   O peration     | Website:  https://openfoam.org
    \\  /    A nd           | Version:  12
     \\/     M anipulation  |
\*---------------------------------------------------------------------------*/
FoamFile
{
    format      ascii;
    class       volVectorField;
    location    "340";
    object      U;
}
// * * * * * * * * * * * * * * * * * * * * * * * * * * * * * * * * * * * * * //

dimensions      [0 1 -1 0 0 0 0];

internalField   nonuniform List<vector> 
6750
(
(0.200065 -0.0031206 0)
(0.200334 -0.00958867 0)
(0.200601 -0.0155817 0)
(0.200832 -0.0211571 0)
(0.200689 -0.0263973 0)
(0.200037 -0.00347821 0)
(0.200271 -0.0101449 0)
(0.200458 -0.0160526 0)
(0.200516 -0.0213269 0)
(0.200374 -0.0260406 0)
(0.200026 -0.00363733 0)
(0.200122 -0.0103569 0)
(0.200123 -0.0161214 0)
(0.19998 -0.0210922 0)
(0.19971 -0.0253526 0)
(0.20001 -0.00366807 0)
(0.199953 -0.0102923 0)
(0.199761 -0.0158487 0)
(0.199437 -0.0205373 0)
(0.199037 -0.0244795 0)
(0.199996 -0.00359784 0)
(0.199798 -0.00999878 0)
(0.199422 -0.0152924 0)
(0.198921 -0.0197078 0)
(0.198376 -0.0233929 0)
(0.199984 -0.00344432 0)
(0.199656 -0.0095114 0)
(0.199104 -0.0144868 0)
(0.198422 -0.018613 0)
(0.197713 -0.0220487 0)
(0.199974 -0.00322204 0)
(0.199524 -0.00885775 0)
(0.198799 -0.0134567 0)
(0.197931 -0.0172616 0)
(0.197044 -0.0204302 0)
(0.199965 -0.00294202 0)
(0.199398 -0.0080606 0)
(0.198505 -0.0122257 0)
(0.197451 -0.0156697 0)
(0.196378 -0.0185417 0)
(0.199956 -0.00261386 0)
(0.199281 -0.00714238 0)
(0.198228 -0.0108215 0)
(0.196995 -0.0138649 0)
(0.195739 -0.0164075 0)
(0.199949 -0.00224729 0)
(0.199175 -0.00612765 0)
(0.197976 -0.00927766 0)
(0.196579 -0.0118856 0)
(0.195152 -0.0140688 0)
(0.199943 -0.00185263 0)
(0.199084 -0.00504312 0)
(0.197758 -0.00763262 0)
(0.196219 -0.00977853 0)
(0.194641 -0.0115782 0)
(0.199938 -0.0014405 0)
(0.199011 -0.00391639 0)
(0.197583 -0.00592681 0)
(0.195927 -0.00759406 0)
(0.194226 -0.00899426 0)
(0.199935 -0.00102121 0)
(0.198957 -0.00277434 0)
(0.197453 -0.00419994 0)
(0.195712 -0.00538213 0)
(0.193918 -0.00637577 0)
(0.199931 -0.000603966 0)
(0.198926 -0.00164167 0)
(0.197371 -0.00248802 0)
(0.195574 -0.00318832 0)
(0.19372 -0.00377708 0)
(0.199921 -0.000200502 0)
(0.198921 -0.000537911 0)
(0.197334 -0.000819672 0)
(0.19551 -0.00105067 0)
(0.193626 -0.00124466 0)
(0.199921 0.000200339 0)
(0.198921 0.000537454 0)
(0.197334 0.000818969 0)
(0.19551 0.00104976 0)
(0.193626 0.0012436 0)
(0.199931 0.000603803 0)
(0.198926 0.00164122 0)
(0.197371 0.00248732 0)
(0.195574 0.00318742 0)
(0.19372 0.00377602 0)
(0.199935 0.00102104 0)
(0.198957 0.00277388 0)
(0.197453 0.00419925 0)
(0.195712 0.00538123 0)
(0.193918 0.00637471 0)
(0.199938 0.00144034 0)
(0.199011 0.00391594 0)
(0.197583 0.00592612 0)
(0.195927 0.00759317 0)
(0.194226 0.00899321 0)
(0.199943 0.00185247 0)
(0.199084 0.00504267 0)
(0.197758 0.00763193 0)
(0.196219 0.00977764 0)
(0.194641 0.0115772 0)
(0.199949 0.00224713 0)
(0.199175 0.00612721 0)
(0.197976 0.00927697 0)
(0.196579 0.0118847 0)
(0.195152 0.0140678 0)
(0.199956 0.00261371 0)
(0.199281 0.00714194 0)
(0.198227 0.0108208 0)
(0.196995 0.013864 0)
(0.195739 0.0164065 0)
(0.199965 0.00294187 0)
(0.199398 0.00806016 0)
(0.198505 0.012225 0)
(0.197451 0.0156689 0)
(0.196378 0.0185406 0)
(0.199974 0.00322188 0)
(0.199524 0.00885732 0)
(0.198799 0.013456 0)
(0.197931 0.0172608 0)
(0.197044 0.0204292 0)
(0.199984 0.00344417 0)
(0.199656 0.00951098 0)
(0.199104 0.0144861 0)
(0.198422 0.0186121 0)
(0.197713 0.0220477 0)
(0.199996 0.00359769 0)
(0.199798 0.00999836 0)
(0.199422 0.0152918 0)
(0.198921 0.0197069 0)
(0.198376 0.0233919 0)
(0.20001 0.00366793 0)
(0.199953 0.0102919 0)
(0.199761 0.015848 0)
(0.199437 0.0205364 0)
(0.199037 0.0244786 0)
(0.200026 0.00363719 0)
(0.200122 0.0103565 0)
(0.200123 0.0161208 0)
(0.19998 0.0210914 0)
(0.19971 0.0253516 0)
(0.200037 0.00347807 0)
(0.200271 0.0101445 0)
(0.200458 0.016052 0)
(0.200516 0.0213261 0)
(0.200374 0.0260396 0)
(0.200065 0.00312048 0)
(0.200334 0.0095883 0)
(0.200601 0.0155811 0)
(0.200831 0.0211563 0)
(0.200689 0.0263964 0)
(0.19851 -0.0381715 0)
(0.196771 -0.0437669 0)
(0.19529 -0.0488918 0)
(0.194259 -0.053493 2.81768e-22)
(0.193531 -0.0574587 0)
(0.193048 -0.0607279 0)
(0.192799 -0.0632343 -1.9289e-20)
(0.192771 -0.0648825 1.94593e-20)
(0.192944 -0.0655554 1.57983e-22)
(0.193246 -0.0651982 1.01164e-20)
(0.19365 -0.0636831 1.92654e-23)
(0.194077 -0.0608569 -1.25402e-23)
(0.194448 -0.0567897 -5.20928e-21)
(0.194679 -0.0515508 -5.16977e-21)
(0.194696 -0.0452836 -1.20718e-20)
(0.194444 -0.0381982 1.20761e-20)
(0.193893 -0.0305542 -4.84669e-21)
(0.193043 -0.0226323 -4.49833e-21)
(0.191923 -0.0147139 3.11567e-22)
(0.190583 -0.00705453 3.5366e-22)
(0.189074 0.000135447 8.63904e-21)
(0.187472 0.00674133 -1.27307e-22)
(0.185861 0.0126394 1.47901e-20)
(0.184299 0.0177728 -1.46592e-20)
(0.182838 0.0221308 0)
(0.181518 0.0257343 0)
(0.18037 0.0286244 -1.86222e-22)
(0.179419 0.0308538 0)
(0.178685 0.0324774 0)
(0.178159 0.0335208 0)
(0.197622 -0.041533 0)
(0.196045 -0.0470382 0)
(0.194851 -0.0517303 0)
(0.194008 -0.0558205 -2.66311e-22)
(0.193399 -0.0592954 0)
(0.19301 -0.0621145 0)
(0.19284 -0.0642068 1.92059e-20)
(0.192875 -0.0654751 -1.96677e-20)
(0.19309 -0.0658107 -1.48697e-22)
(0.193415 -0.0651817 0)
(0.193825 -0.0634228 0)
(0.194232 -0.060452 -9.566e-21)
(0.194569 -0.0563326 9.59612e-21)
(0.194758 -0.0511355 0)
(0.194731 -0.0449975 -3.21994e-20)
(0.194442 -0.0381124 3.21997e-20)
(0.193865 -0.0307145 0)
(0.193004 -0.0230593 8.70993e-21)
(0.191885 -0.0153984 -8.7542e-21)
(0.190554 -0.00796258 0)
(0.189072 -0.000942185 0)
(0.1875 0.00554199 1.19432e-22)
(0.185904 0.0113805 -1.41987e-20)
(0.184349 0.0165158 1.43057e-20)
(0.182883 0.0209291 0)
(0.181545 0.0246321 0)
(0.180363 0.0276571 1.75363e-22)
(0.179358 0.0300496 0)
(0.178556 0.0318678 0)
(0.177965 0.0331874 0)
(0.196785 -0.0441222 0)
(0.195527 -0.049117 0)
(0.194514 -0.0533905 0)
(0.193763 -0.057147 1.96e-20)
(0.193228 -0.0603397 -1.98176e-20)
(0.192911 -0.0629048 2.06901e-20)
(0.192808 -0.0647595 -2.08846e-20)
(0.1929 -0.0658058 3.21794e-22)
(0.193159 -0.0659436 0)
(0.193516 -0.0651475 0)
(0.19394 -0.0632314 -3.21235e-22)
(0.194342 -0.060166 0)
(0.194657 -0.0560024 0)
(0.194808 -0.0508142 -7.6053e-23)
(0.19473 -0.0447359 -5.30055e-20)
(0.19438 -0.0379541 5.30059e-20)
(0.193738 -0.0306919 7.03832e-23)
(0.192812 -0.0231895 0)
(0.191633 -0.0156832 0)
(0.190249 -0.00838741 2.54995e-22)
(0.188719 -0.00147957 0)
(0.187107 0.00490448 0)
(0.185478 0.0106785 -2.36567e-22)
(0.183891 0.0157858 -1.37868e-20)
(0.182393 0.0202053 1.36584e-20)
(0.181021 0.0239441 -1.26689e-20)
(0.1798 0.0270288 1.25112e-20)
(0.178748 0.0294975 0)
(0.177895 0.0314081 0)
(0.177319 0.0329049 0)
(0.196046 -0.046449 0)
(0.195012 -0.0510241 -4.24346e-20)
(0.194103 -0.0549631 2.13965e-20)
(0.193421 -0.0584273 4.44696e-20)
(0.192956 -0.0613512 -4.5008e-20)
(0.192708 -0.0636633 2.23875e-20)
(0.192666 -0.0652783 0)
(0.192817 -0.0661006 7.02909e-22)
(0.193111 -0.0660474 0)
(0.193508 -0.0650742 0)
(0.193948 -0.0630056 1.13969e-20)
(0.19435 -0.0598482 -1.07706e-20)
(0.194646 -0.0556414 0)
(0.194757 -0.0504624 7.98457e-23)
(0.19462 -0.0444438 -7.34007e-20)
(0.194194 -0.0377652 7.34011e-20)
(0.193464 -0.0306389 -7.38931e-23)
(0.192443 -0.0232912 0)
(0.191165 -0.015944 -8.51476e-21)
(0.189684 -0.00879783 7.95433e-21)
(0.188062 -0.00201931 2.43425e-22)
(0.186367 0.00426444 0)
(0.184663 0.009968 -4.4581e-22)
(0.183009 0.0150389 0)
(0.181452 0.0194558 1.30283e-20)
(0.180027 0.0232232 -2.48269e-20)
(0.178756 0.0263633 2.34674e-20)
(0.177651 0.028907 1.05331e-20)
(0.176746 0.0309082 -2.17471e-20)
(0.176204 0.0325822 0)
(0.195288 -0.0486652 0)
(0.194389 -0.0528759 4.76241e-20)
(0.193562 -0.0565028 -4.67988e-20)
(0.192952 -0.0596787 0)
(0.192557 -0.0623337 0)
(0.192372 -0.0643924 7.62001e-22)
(0.192389 -0.065768 0)
(0.192592 -0.0663661 -7.36495e-22)
(0.192925 -0.0661258 1.16285e-20)
(0.193356 -0.0649669 -1.17883e-20)
(0.19381 -0.0627501 -1.16474e-20)
(0.19421 -0.0594961 1.13456e-20)
(0.194482 -0.0552408 3.38658e-22)
(0.194546 -0.0500644 -1.63491e-22)
(0.194342 -0.0440978 -9.34051e-20)
(0.19383 -0.037515 9.34056e-20)
(0.192999 -0.0305186 1.44719e-22)
(0.191864 -0.0233226 -2.76989e-22)
(0.190466 -0.0161352 8.51115e-21)
(0.188864 -0.00914385 -8.20381e-21)
(0.187125 -0.00250427 -8.0649e-21)
(0.185319 0.0036652 7.75409e-21)
(0.183513 0.00928314 4.67207e-22)
(0.181766 0.0143006 0)
(0.180126 0.0186972 -4.03003e-22)
(0.178627 0.0224762 0)
(0.177292 0.0256562 0)
(0.176127 0.0282624 -2.23233e-20)
(0.175162 0.0303429 2.13494e-20)
(0.174648 0.0321848 0)
(0.194434 -0.050772 4.90132e-20)
(0.19362 -0.0546347 -7.70497e-20)
(0.192868 -0.057962 2.53864e-20)
(0.192329 -0.0608609 0)
(0.191999 -0.063257 2.56726e-20)
(0.191875 -0.0650708 -2.51409e-20)
(0.191947 -0.0662147 2.47301e-20)
(0.192199 -0.066597 -2.56239e-20)
(0.192568 -0.0661721 0)
(0.193027 -0.0648259 -7.74693e-22)
(0.193488 -0.0624643 1.18678e-20)
(0.19388 -0.0591099 -6.17473e-21)
(0.194122 -0.0547994 -9.3046e-22)
(0.194134 -0.0496155 -5.39663e-21)
(0.193855 -0.0436887 -1.13047e-19)
(0.19325 -0.0371884 1.13043e-19)
(0.192308 -0.0303092 -4.82745e-21)
(0.191051 -0.0232547 7.71684e-22)
(0.189523 -0.0162209 -4.06941e-21)
(0.187788 -0.00938342 8.47086e-21)
(0.185917 -0.00288721 4.80901e-22)
(0.183984 0.00315756 0)
(0.182059 0.00867531 -1.41584e-20)
(0.180202 0.0136212 1.44385e-20)
(0.178461 0.0179768 -1.33003e-20)
(0.176873 0.0217452 1.27718e-20)
(0.175458 0.024943 7.28102e-22)
(0.174222 0.0275908 1.12308e-20)
(0.173189 0.0297302 -3.27857e-20)
(0.172685 0.0317155 2.31416e-20)
(0.193439 -0.0527533 -2.56668e-20)
(0.192678 -0.0562818 2.89918e-20)
(0.191996 -0.0593276 2.90356e-20)
(0.191522 -0.061965 -2.94421e-20)
(0.191254 -0.0641142 2.75219e-20)
(0.191186 -0.0656925 -2.95762e-20)
(0.19131 -0.0666129 -8.84723e-22)
(0.191607 -0.0667881 0)
(0.192008 -0.0661784 1.30802e-20)
(0.192487 -0.0646457 3.73338e-22)
(0.192951 -0.0621414 3.22723e-22)
(0.193327 -0.0586831 -1.29062e-20)
(0.193531 -0.0543104 -5.39474e-21)
(0.193483 -0.0491091 8.53496e-21)
(0.193125 -0.0432097 -1.34802e-19)
(0.19242 -0.0367783 1.29552e-19)
(0.191365 -0.0300031 7.21674e-21)
(0.189982 -0.0230784 -5.28973e-21)
(0.188321 -0.0161902 -8.50886e-21)
(0.186449 -0.00950292 -1.21794e-22)
(0.184441 -0.0031518 -1.63793e-22)
(0.182374 0.00276123 7.62771e-21)
(0.180321 0.00816691 0)
(0.178343 0.0130251 3.85475e-22)
(0.176491 0.01732 -1.19443e-20)
(0.174801 0.0210557 1.26217e-20)
(0.173296 0.024248 -1.17031e-20)
(0.171977 0.0269143 1.08095e-20)
(0.170866 0.0290906 1.06952e-20)
(0.170349 0.0311878 -1.21193e-20)
(0.192265 -0.0546046 0)
(0.191538 -0.0578175 2.72483e-20)
(0.190918 -0.0606016 -3.31853e-20)
(0.190505 -0.0629923 3.12627e-20)
(0.190294 -0.0649051 -2.98527e-20)
(0.19028 -0.0662561 2.74062e-20)
(0.190453 -0.0669593 -2.77549e-20)
(0.190784 -0.0669362 -1.81059e-21)
(0.191217 -0.0661343 -8.86238e-22)
(0.191707 -0.0644188 -8.64398e-22)
(0.192166 -0.0617725 -8.33168e-22)
(0.192519 -0.0582062 4.01692e-22)
(0.192678 -0.0537646 -6.36039e-21)
(0.192565 -0.0485369 3.15662e-21)
(0.192122 -0.042654 -1.4776e-19)
(0.191316 -0.0362796 1.53138e-19)
(0.190146 -0.0295963 2.24639e-21)
(0.188639 -0.0227909 -4.18593e-21)
(0.186846 -0.01604 2.65815e-22)
(0.184838 -0.00949861 1.02717e-21)
(0.182694 -0.00329256 4.71353e-22)
(0.180493 0.0024841 4.45849e-22)
(0.17831 0.00776854 8.46354e-22)
(0.176208 0.0125255 -1.39861e-20)
(0.174238 0.0167425 1.37392e-20)
(0.17244 0.0204254 -1.20269e-20)
(0.170834 0.02359 1.1107e-20)
(0.169424 0.0262522 -9.70861e-21)
(0.168227 0.0284437 1.16208e-20)
(0.167675 0.0306195 0)
(0.190877 -0.0563273 0)
(0.19017 -0.0592444 1.97863e-21)
(0.189608 -0.0617849 -2.74273e-20)
(0.189252 -0.0639416 4.15395e-22)
(0.189094 -0.0656271 3.1922e-20)
(0.18913 -0.0667572 1.95078e-21)
(0.18935 -0.0672465 1.95133e-21)
(0.189705 -0.0670318 -1.30537e-20)
(0.190164 -0.0660314 1.61303e-20)
(0.190659 -0.0641387 -4.95891e-24)
(0.191107 -0.0613474 -6.83338e-21)
(0.191428 -0.0576689 6.87442e-21)
(0.191535 -0.0531524 -2.69682e-21)
(0.191351 -0.0478905 3.10653e-21)
(0.190821 -0.0420151 -1.68582e-19)
(0.189914 -0.0356875 1.68582e-19)
(0.188631 -0.0290859 2.4113e-21)
(0.187002 -0.0223904 -2.70089e-21)
(0.185082 -0.0157693 3.94954e-21)
(0.182944 -0.00936894 -5.2223e-21)
(0.180669 -0.00330669 -2.92546e-23)
(0.178339 0.00233099 7.04982e-21)
(0.176028 0.00748754 -7.89392e-21)
(0.173803 0.0121326 -7.84854e-22)
(0.171716 0.0162574 -8.04696e-22)
(0.169806 0.01987 1.17457e-20)
(0.168095 0.0229869 -3.29875e-22)
(0.166587 0.0256235 -1.24279e-20)
(0.165298 0.0278093 0)
(0.164691 0.0300307 0)
(0.18924 -0.0579237 0)
(0.188546 -0.0605637 -3.53256e-20)
(0.188037 -0.0628758 4.09932e-22)
(0.187735 -0.0648093 5.22137e-22)
(0.187628 -0.0662749 6.53249e-20)
(0.187709 -0.0671894 -3.38845e-20)
(0.187968 -0.0674697 -2.03927e-21)
(0.188348 -0.0670629 0)
(0.188825 -0.0658615 1.44619e-20)
(0.189316 -0.0637935 -1.46659e-20)
(0.189746 -0.0608551 7.14408e-21)
(0.190029 -0.0570606 -3.9911e-22)
(0.190078 -0.0524643 -6.82288e-21)
(0.18982 -0.047162 1.92887e-22)
(0.1892 -0.0412865 -1.85902e-19)
(0.188192 -0.0349978 1.85985e-19)
(0.186799 -0.0284696 -1.54392e-22)
(0.185054 -0.0218761 -4.51465e-21)
(0.183015 -0.0153782 2.93433e-22)
(0.180755 -0.00911416 5.1818e-21)
(0.178357 -0.00319362 -7.8264e-21)
(0.175905 0.00230404 7.24133e-21)
(0.173474 0.00732825 0)
(0.171131 0.0118535 8.20306e-22)
(0.168929 0.0158747 -1.18703e-20)
(0.166908 0.0194023 2.37603e-20)
(0.165092 0.0224541 -3.06575e-22)
(0.163483 0.0250459 5.5734e-22)
(0.162099 0.0272068 -1.03981e-20)
(0.16142 0.0294426 0)
(0.187323 -0.0593956 -4.55021e-21)
(0.186638 -0.0617753 0)
(0.18618 -0.0638715 -2.22148e-21)
(0.185928 -0.0655905 3.33955e-20)
(0.185868 -0.066842 -3.63004e-20)
(0.185993 -0.067545 3.50991e-20)
(0.186284 -0.0676213 -3.53989e-20)
(0.186688 -0.0670164 -1.6719e-20)
(0.187173 -0.0656134 3.53562e-20)
(0.187655 -0.0633713 2.11946e-22)
(0.188059 -0.0602838 -1.48171e-20)
(0.188297 -0.0563705 7.05714e-21)
(0.188284 -0.0516906 -3.7792e-21)
(0.187948 -0.0463434 -5.07289e-21)
(0.187239 -0.0404626 -2.01007e-19)
(0.186131 -0.0342068 2.03786e-19)
(0.184633 -0.0277459 -3.6054e-21)
(0.182778 -0.0212483 -2.06873e-21)
(0.180627 -0.0148681 4.48177e-21)
(0.178255 -0.00873617 -8.69101e-21)
(0.175746 -0.00295496 3.01213e-23)
(0.173182 0.00240272 1.29282e-20)
(0.17064 0.00729195 -6.62205e-21)
(0.168187 0.0116918 -1.19426e-20)
(0.165877 0.0156007 1.17772e-20)
(0.163751 0.0190318 -1.09511e-20)
(0.161831 0.0220042 1.13408e-20)
(0.160122 0.0245347 -6.01351e-22)
(0.158642 0.0266534 0)
(0.157879 0.0288753 1.43328e-21)
(0.185093 -0.0607443 4.73225e-21)
(0.184416 -0.0628777 -4.01224e-20)
(0.184007 -0.0647675 3.8459e-20)
(0.183805 -0.0662784 2.36918e-21)
(0.18379 -0.0673199 2.3602e-21)
(0.183957 -0.0678127 0)
(0.184268 -0.0676897 -2.31009e-21)
(0.184695 -0.0668787 -1.99221e-20)
(0.185181 -0.0652766 3.39405e-20)
(0.185649 -0.0628597 -1.8334e-20)
(0.186021 -0.0596214 -1.00393e-21)
(0.186209 -0.0555872 7.32534e-21)
(0.18613 -0.0508215 -7.3647e-21)
(0.185715 -0.0454267 -2.04514e-22)
(0.184916 -0.0395377 -2.18142e-19)
(0.183712 -0.0333112 2.18054e-19)
(0.182114 -0.0269136 1.56631e-22)
(0.180158 -0.0205078 -4.47871e-21)
(0.177905 -0.0142413 4.45484e-21)
(0.175432 -0.00823813 5.036e-22)
(0.172822 -0.00259399 -6.46924e-21)
(0.170158 0.00262441 1.37312e-20)
(0.167517 0.00737736 -5.62655e-21)
(0.164964 0.0116482 6.87086e-22)
(0.162555 0.0154387 0)
(0.16033 0.0187644 -6.84851e-22)
(0.158312 0.0216461 -6.54602e-22)
(0.156506 0.0241018 9.68189e-21)
(0.154933 0.0261636 -8.87047e-21)
(0.154079 0.0283474 -1.49061e-21)
(0.182516 -0.0619689 0)
(0.181849 -0.0638672 -5.62035e-23)
(0.181489 -0.0655571 4.02455e-20)
(0.181335 -0.0668642 -4.10254e-20)
(0.181365 -0.0676981 -3.98158e-20)
(0.181567 -0.067982 6.2171e-20)
(0.181902 -0.0676594 -1.73387e-20)
(0.182344 -0.0666365 -2.23721e-23)
(0.182826 -0.0648377 -2.31099e-21)
(0.183274 -0.0622447 0)
(0.183609 -0.0588546 -8.10182e-21)
(0.183742 -0.0546989 1.57563e-20)
(0.183594 -0.049847 -7.63672e-21)
(0.183098 -0.0444042 2.14002e-22)
(0.182211 -0.0385061 -2.32793e-19)
(0.180915 -0.0323078 2.32881e-19)
(0.179223 -0.025972 -1.63898e-22)
(0.177175 -0.0196558 -4.43355e-21)
(0.174831 -0.0135008 8.422e-21)
(0.172268 -0.00762406 -3.98357e-21)
(0.16957 -0.00211518 0)
(0.166819 0.00296484 7.51764e-22)
(0.164091 0.00758109 -7.6592e-23)
(0.161451 0.0117208 -6.03145e-21)
(0.158954 0.0153889 1.4679e-20)
(0.156639 0.018603 -9.87751e-21)
(0.15453 0.0213854 -9.11274e-21)
(0.152633 0.0237556 9.52362e-21)
(0.15097 0.0257485 -6.51968e-23)
(0.150023 0.027874 0)
(0.179558 -0.0630662 0)
(0.178904 -0.0647372 -3.97871e-20)
(0.178595 -0.0662308 4.33362e-20)
(0.17849 -0.0673367 3.97516e-20)
(0.178562 -0.067964 -4.32821e-20)
(0.178797 -0.0680409 -2.31829e-20)
(0.179155 -0.067513 8.25796e-22)
(0.179607 -0.0662752 2.3007e-20)
(0.18008 -0.0642809 4.83643e-21)
(0.180504 -0.0615114 0)
(0.180796 -0.0579698 0)
(0.180871 -0.0536936 -6.84093e-21)
(0.180652 -0.0487569 8.37801e-21)
(0.180076 -0.043268 0)
(0.179103 -0.0373625 -2.46237e-19)
(0.17772 -0.0311938 2.46234e-19)
(0.175942 -0.0249204 0)
(0.17381 -0.018694 4.0856e-21)
(0.171386 -0.0126498 -4.83299e-21)
(0.168747 -0.0068987 0)
(0.165974 -0.00152406 0)
(0.16315 0.00341834 -1.48681e-21)
(0.160348 0.00789798 4.54298e-21)
(0.157634 0.0119056 -3.02872e-22)
(0.155059 0.0154488 -4.17878e-21)
(0.152665 0.0185472 -8.6657e-21)
(0.150475 0.0212244 8.9825e-21)
(0.148494 0.0235013 8.1061e-21)
(0.146749 0.0254158 -8.4756e-21)
(0.145707 0.0274672 0)
(0.176183 -0.0640307 0)
(0.175549 -0.0654762 0)
(0.175292 -0.0667766 0)
(0.175236 -0.067682 -4.20431e-20)
(0.175353 -0.0681018 2.0568e-20)
(0.175614 -0.067974 2.51382e-20)
(0.175997 -0.0672303 2.72559e-21)
(0.176453 -0.0657789 2.05433e-20)
(0.176914 -0.0635893 -1.14579e-21)
(0.177309 -0.0606439 -1.99167e-20)
(0.177555 -0.0569524 -1.13523e-21)
(0.177569 -0.0525585 -2.1188e-21)
(0.177278 -0.0475407 -4.70568e-21)
(0.176624 -0.0420098 3.52465e-21)
(0.175569 -0.0361014 -2.58157e-19)
(0.174104 -0.0299662 2.58165e-19)
(0.172248 -0.0237585 2.57126e-21)
(0.170042 -0.0176243 -1.84054e-21)
(0.16755 -0.0116924 9.94234e-22)
(0.164848 -0.00606744 4.17104e-22)
(0.162015 -0.000827009 -5.89391e-21)
(0.159131 0.00397806 6.40072e-22)
(0.15627 0.00832129 5.19747e-21)
(0.153494 0.0121965 -5.14865e-22)
(0.150856 0.0156137 3.58009e-21)
(0.148395 0.0185941 4.06165e-21)
(0.146133 0.0211621 -7.94757e-21)
(0.144077 0.0233402 0)
(0.142256 0.0251694 0)
(0.141124 0.0271348 0)
(0.17235 -0.0648499 -4.77292e-20)
(0.171744 -0.0660716 5.02948e-20)
(0.171542 -0.0671796 0)
(0.171539 -0.0678837 -2.36583e-20)
(0.171699 -0.0680942 2.69103e-20)
(0.17199 -0.0677586 2.2771e-20)
(0.172394 -0.066792 -2.90323e-20)
(0.172851 -0.0651293 0)
(0.173298 -0.0627443 -2.64573e-21)
(0.17366 -0.0596246 0)
(0.173856 -0.0557866 3.40365e-24)
(0.173808 -0.05128 9.10034e-24)
(0.173446 -0.0461875 1.00442e-21)
(0.172714 -0.0406215 4.54867e-22)
(0.171581 -0.0347172 -2.68696e-19)
(0.170042 -0.0286223 2.68681e-19)
(0.168116 -0.0224861 -3.16396e-22)
(0.165848 -0.0164489 -5.50846e-22)
(0.163301 -0.0106329 -4.23364e-23)
(0.160548 -0.00513637 -4.5141e-23)
(0.157669 -3.13903e-05 0)
(0.154741 0.0046359 6.69132e-22)
(0.151835 0.00884268 0)
(0.149012 0.0125856 -2.77622e-21)
(0.146323 0.0158763 3.77824e-21)
(0.143807 0.0187376 2.71232e-21)
(0.141484 0.0211944 -3.09948e-21)
(0.139364 0.0232705 0)
(0.137477 0.0250097 6.91827e-21)
(0.136259 0.0268807 -7.29502e-21)
(0.168018 -0.0655077 0)
(0.167448 -0.0665066 7.01882e-23)
(0.167306 -0.067421 5.33635e-20)
(0.16736 -0.0679209 -5.104e-20)
(0.167562 -0.0679207 3.12631e-21)
(0.167888 -0.0673689 -6.12507e-21)
(0.168309 -0.0661764 2.98233e-21)
(0.168766 -0.0643037 0)
(0.169195 -0.0617248 0)
(0.169521 -0.0584341 0)
(0.169666 -0.0544553 1.22752e-21)
(0.169555 -0.0498436 -7.48268e-21)
(0.169121 -0.0446853 1.20682e-20)
(0.168315 -0.0390942 -5.90612e-21)
(0.16711 -0.0332041 -2.75283e-19)
(0.165503 -0.0271592 2.7836e-19)
(0.163518 -0.0211035 -3.49816e-21)
(0.1612 -0.0151707 6.53899e-21)
(0.15861 -0.0094763 -4.40215e-21)
(0.155822 -0.00411244 -4.05337e-22)
(0.152911 0.000854345 -2.93805e-22)
(0.149954 0.00538238 0)
(0.147019 0.00945217 0)
(0.144163 0.0130627 -4.49985e-22)
(0.141438 0.0162272 6.90729e-22)
(0.138879 0.0189693 -2.53499e-22)
(0.136508 0.0213142 -4.42272e-21)
(0.134333 0.0232867 4.1152e-21)
(0.132388 0.0249331 1.0273e-22)
(0.131093 0.0267045 0)
(0.163139 -0.0659812 -5.26324e-20)
(0.162614 -0.066761 4.87975e-20)
(0.162539 -0.067477 2.30808e-20)
(0.162654 -0.0677671 -2.6854e-20)
(0.162901 -0.0675551 -2.87975e-20)
(0.163263 -0.066775 2.9527e-20)
(0.163701 -0.0653591 2.44879e-20)
(0.164156 -0.0632769 -2.19002e-20)
(0.164565 -0.0605069 1.26092e-20)
(0.164853 -0.057051 -1.13233e-20)
(0.164945 -0.0529396 1.09551e-20)
(0.16477 -0.0482333 -5.36476e-21)
(0.164266 -0.0430216 -3.93444e-21)
(0.16339 -0.0374187 2.31732e-22)
(0.162118 -0.0315564 -2.82999e-19)
(0.160453 -0.0255745 2.82978e-19)
(0.15842 -0.019611 -1.46033e-22)
(0.156063 -0.0137929 -2.10609e-21)
(0.153445 -0.00822857 -1.21853e-21)
(0.150636 -0.0030038 3.03762e-21)
(0.147711 0.00182031 -1.71174e-21)
(0.14474 0.0062063 1.79613e-21)
(0.141791 0.0101377 -2.91496e-21)
(0.138918 0.0136155 2.57332e-21)
(0.13617 0.0166541 1.49216e-21)
(0.133581 0.0192773 -1.49037e-21)
(0.131174 0.0215107 -1.33042e-21)
(0.128956 0.0233795 1.50906e-21)
(0.126964 0.024932 4.57801e-21)
(0.125598 0.0266011 -4.37999e-21)
(0.15766 -0.0662433 -3.4593e-21)
(0.157189 -0.0668078 -5.48104e-20)
(0.157189 -0.0673171 6.02931e-20)
(0.15737 -0.0673923 0)
(0.157669 -0.0669605 -3.46682e-21)
(0.158068 -0.0659462 0)
(0.158521 -0.0643085 -3.31657e-21)
(0.158974 -0.062019 2.45329e-20)
(0.15936 -0.0590632 -2.64395e-20)
(0.159608 -0.0554506 1.41582e-21)
(0.159646 -0.0512183 -2.62061e-21)
(0.159407 -0.0464316 -1.18966e-21)
(0.158836 -0.0411825 -5.42087e-22)
(0.157894 -0.0355849 -2.40531e-22)
(0.156563 -0.0297678 -2.86036e-19)
(0.154849 -0.0238657 2.86026e-19)
(0.152779 -0.0180099 1.51578e-22)
(0.150398 -0.0123199 2.50769e-22)
(0.147767 -0.00689695 -3.4944e-22)
(0.144954 -0.00182018 0)
(0.14203 0.00285468 -1.9012e-22)
(0.139063 0.0070942 -2.10156e-21)
(0.136115 0.0108847 2.39804e-21)
(0.133241 0.0142286 9.01132e-23)
(0.130485 0.0171413 0)
(0.127881 0.0196465 -1.67079e-24)
(0.12545 0.0217693 0)
(0.123201 0.0235351 7.96616e-22)
(0.12117 0.0249939 -7.29881e-22)
(0.119744 0.0265603 1.75299e-22)
(0.151517 -0.066261 -5.44714e-20)
(0.151113 -0.0666065 5.72263e-20)
(0.151197 -0.0669009 9.66641e-23)
(0.151447 -0.0667578 3.22139e-20)
(0.151806 -0.0660926 -5.41467e-20)
(0.152242 -0.0648453 3.26009e-20)
(0.152712 -0.0629876 3.414e-21)
(0.15316 -0.0604952 3.81585e-23)
(0.153522 -0.0573618 0)
(0.153728 -0.0536045 -1.46212e-21)
(0.153711 -0.0492668 -7.53817e-21)
(0.15341 -0.0444182 1.15858e-20)
(0.152775 -0.0391524 5.39298e-22)
(0.151773 -0.0335821 -1.53151e-21)
(0.150391 -0.027832 -2.83933e-19)
(0.148639 -0.0220307 2.86946e-19)
(0.146545 -0.0163021 -1.36309e-21)
(0.144156 -0.0107575 -2.01956e-22)
(0.141528 -0.00549061 2.65494e-21)
(0.138728 -0.000573686 -2.26722e-21)
(0.135823 0.00394285 1.96337e-22)
(0.132877 0.00802946 0)
(0.129948 0.0116749 1.68845e-22)
(0.127089 0.0148829 -9.27595e-23)
(0.124341 0.0176691 -3.37217e-22)
(0.121737 0.0200568 1.18617e-21)
(0.119295 0.0220702 -5.24218e-22)
(0.117025 0.0237347 1.57795e-22)
(0.114968 0.0251011 2.53262e-22)
(0.113489 0.0265658 -4.35826e-22)
(0.144635 -0.0659863 0)
(0.144314 -0.0661071 0)
(0.14449 -0.0661781 -3.38629e-20)
(0.144819 -0.0658088 2.73668e-20)
(0.145241 -0.0649034 0)
(0.145717 -0.0634254 -3.6671e-21)
(0.146203 -0.0613508 -3.61594e-21)
(0.146646 -0.0586631 -3.40958e-21)
(0.146981 -0.0553642 0)
(0.147144 -0.0514789 0)
(0.147072 -0.0470565 -1.38713e-21)
(0.146709 -0.0421701 5.29375e-21)
(0.146013 -0.0369139 -5.81837e-21)
(0.144958 -0.031398 -2.41594e-22)
(0.143535 -0.0257424 -2.8154e-19)
(0.141758 -0.0200683 2.81606e-19)
(0.139655 -0.0144912 1.35327e-22)
(0.137272 -0.0091138 -9.34444e-22)
(0.134666 -0.00402154 1.30465e-21)
(0.131899 0.00072014 0)
(0.129032 0.00506623 0)
(0.126126 0.00899092 0)
(0.123236 0.0124851 0)
(0.12041 0.0155536 -2.52199e-22)
(0.117686 0.0182116 -1.27188e-22)
(0.115096 0.0204818 0)
(0.112658 0.0223871 -2.51808e-21)
(0.110381 0.0239522 2.04747e-21)
(0.108307 0.0252282 0)
(0.106786 0.0265933 0)
(0.136923 -0.0653548 -3.98899e-21)
(0.136702 -0.0652431 0)
(0.136981 -0.0650865 0)
(0.137401 -0.0644766 0)
(0.137889 -0.0633315 0)
(0.138405 -0.0616256 0)
(0.138907 -0.059341 3.69302e-21)
(0.139342 -0.0564701 1.79131e-21)
(0.139648 -0.0530233 -1.27842e-20)
(0.139765 -0.0490329 2.8081e-21)
(0.139637 -0.0445533 2.40145e-20)
(0.139215 -0.03966 -1.61295e-20)
(0.138463 -0.0344466 7.02196e-22)
(0.137363 -0.0290197 4.09841e-21)
(0.13591 -0.0234926 -2.7253e-19)
(0.13412 -0.0179784 2.72487e-19)
(0.132026 -0.0125831 1.57115e-21)
(0.12967 -0.00739999 -5.56738e-22)
(0.127106 -0.002506 -2.18611e-21)
(0.124391 0.00204065 1.45208e-21)
(0.121584 0.00620034 -6.05452e-22)
(0.118741 0.00995084 3.05659e-22)
(0.11591 0.013285 1.89534e-22)
(0.113136 0.016208 2.57573e-22)
(0.110456 0.0187348 0)
(0.107897 0.0208865 0)
(0.105477 0.0226844 0)
(0.103206 0.0241519 0)
(0.101127 0.0253397 0)
(0.0995732 0.0266083 -3.5342e-22)
(0.128269 -0.0642796 8.21692e-21)
(0.128169 -0.0639293 -3.27953e-20)
(0.128564 -0.0635325 3.40742e-20)
(0.129081 -0.0626762 0)
(0.129637 -0.0612947 -3.20469e-20)
(0.130194 -0.0593671 3.70365e-20)
(0.130711 -0.0568848 -3.17184e-20)
(0.131133 -0.0538494 2.68355e-20)
(0.131406 -0.0502802 0)
(0.131475 -0.0462159 1.04097e-20)
(0.13129 -0.0417154 -2.88318e-21)
(0.130812 -0.0368553 -1.56179e-20)
(0.13001 -0.0317271 5.31655e-21)
(0.128874 -0.0264324 1.64911e-21)
(0.127404 -0.0210765 -2.59311e-19)
(0.12562 -0.015763 2.56571e-19)
(0.123553 -0.0105873 9.54821e-22)
(0.121245 -0.00563268 5.66854e-22)
(0.118747 -0.000966818 -1.10866e-21)
(0.11611 0.00335941 9.67095e-22)
(0.113388 0.00731181 -5.06873e-22)
(0.11063 0.0108716 -2.48934e-22)
(0.107882 0.0140332 -4.88367e-21)
(0.105183 0.0168021 3.9115e-21)
(0.102567 0.0191921 -4.65348e-21)
(0.100059 0.0212225 5.28533e-21)
(0.0976747 0.0229124 0)
(0.0954254 0.0242838 -5.59287e-21)
(0.0933541 0.0253857 5.41491e-21)
(0.0917782 0.0265607 9.53805e-22)
(0.118532 -0.0626374 2.62012e-20)
(0.118574 -0.062041 -3.41096e-20)
(0.119099 -0.0613926 -3.00822e-20)
(0.119716 -0.0602929 3.57485e-20)
(0.120342 -0.0586811 3.75806e-20)
(0.120937 -0.0565447 -7.46496e-20)
(0.121462 -0.0538853 5.23367e-20)
(0.121867 -0.0507143 -1.38592e-20)
(0.122102 -0.0470588 0)
(0.12212 -0.0429638 -1.21406e-20)
(0.121878 -0.0384907 1.09193e-20)
(0.121346 -0.0337162 -6.26345e-22)
(0.120502 -0.028728 -1.94852e-21)
(0.119342 -0.0236205 2.7436e-21)
(0.117872 -0.0184898 -2.36382e-19)
(0.116113 -0.0134283 2.35182e-19)
(0.114097 -0.00851991 8.67112e-22)
(0.111864 -0.00383682 -4.61024e-22)
(0.109458 0.000562877 -3.0524e-23)
(0.106928 0.00463595 -1.67704e-21)
(0.104319 0.00835363 1.6939e-21)
(0.101677 0.0117004 6.40364e-22)
(0.099039 0.014672 3.58505e-21)
(0.0964417 0.0172737 -9.5173e-21)
(0.0939142 0.0195178 1.27714e-20)
(0.0914799 0.0214214 -6.29423e-21)
(0.089152 0.023001 -8.02341e-21)
(0.0869423 0.0242761 7.76663e-21)
(0.084894 0.0252937 6.49021e-21)
(0.0833087 0.0263776 -8.09427e-21)
(0.107529 -0.0602469 4.09426e-20)
(0.107735 -0.0593942 4.81122e-21)
(0.108394 -0.0584977 -5.73047e-21)
(0.109112 -0.0571614 -3.72053e-20)
(0.109804 -0.055334 -4.35395e-21)
(0.110431 -0.0530132 6.40401e-21)
(0.110955 -0.050211 5.73793e-23)
(0.111335 -0.0469481 0)
(0.111524 -0.0432591 0)
(0.111486 -0.0391931 -1.2183e-20)
(0.111188 -0.0348134 1.38681e-20)
(0.110607 -0.030194 6.30811e-22)
(0.109732 -0.0254171 0)
(0.108564 -0.0205681 5.20911e-22)
(0.107114 -0.0157317 -2.06153e-19)
(0.105406 -0.0109878 2.05081e-19)
(0.10347 -0.00640752 3.45185e-22)
(0.101343 -0.00205114 0)
(0.0990648 0.00203335 3.07415e-23)
(0.0966759 0.00581055 -2.3512e-21)
(0.0942163 0.00925711 2.19387e-21)
(0.091723 0.0123605 -3.9003e-22)
(0.0892298 0.0151176 0)
(0.0867664 0.0175329 1.68781e-22)
(0.0843583 0.0196168 1.79016e-21)
(0.0820258 0.0213837 -1.11999e-21)
(0.0797804 0.0228469 1.05192e-20)
(0.0776335 0.0240231 -1.33514e-23)
(0.0756283 0.024956 4.35459e-22)
(0.0740493 0.0259495 -8.16206e-21)
(0.0950085 -0.0568267 -3.82611e-20)
(0.095393 -0.0557265 3.274e-20)
(0.0961852 -0.0545913 0)
(0.0969966 -0.053038 -3.40876e-20)
(0.0977422 -0.0510266 4.00984e-20)
(0.0983857 -0.0485656 -1.90946e-20)
(0.0988957 -0.045677 3.1392e-20)
(0.0992361 -0.0423899 -1.44745e-20)
(0.0993719 -0.0387446 0)
(0.0992738 -0.0347932 0)
(0.0989206 -0.0305978 5.93418e-21)
(0.0982997 -0.0262281 -5.90637e-21)
(0.0974088 -0.0217577 0)
(0.0962549 -0.017261 1.96376e-22)
(0.0948544 -0.0128095 -1.65067e-19)
(0.0932307 -0.00846855 1.65032e-19)
(0.0914127 -0.00429543 -3.68279e-23)
(0.0894327 -0.000337741 0)
(0.0873242 0.0033671 1.20851e-21)
(0.0851209 0.0067917 -1.11047e-21)
(0.0828545 0.00991799 0)
(0.080555 0.0127363 0)
(0.0782491 0.0152439 6.76255e-21)
(0.0759612 0.0174443 -1.27512e-20)
(0.0737121 0.0193455 5.41006e-21)
(0.0715188 0.0209587 -1.23823e-20)
(0.0693907 0.0222935 1.38111e-20)
(0.0673385 0.0233633 0)
(0.0654045 0.0242076 -1.2969e-20)
(0.063854 0.0251073 1.02479e-20)
(0.0806107 -0.0519296 -3.75299e-20)
(0.0811715 -0.0506104 3.65049e-20)
(0.0820795 -0.0492682 -3.86948e-20)
(0.0829605 -0.0475457 6.18702e-23)
(0.0837343 -0.0454147 4.20905e-22)
(0.0843698 -0.0428935 5.70068e-20)
(0.0848434 -0.0400131 -1.77932e-20)
(0.085128 -0.0368088 -1.95163e-21)
(0.0851992 -0.0333247 1.3447e-20)
(0.0850393 -0.0296129 -2.55781e-20)
(0.084638 -0.0257317 1.20384e-20)
(0.0839934 -0.0217433 4.63843e-21)
(0.0831115 -0.0177102 -5.64482e-21)
(0.0820054 -0.013693 2.06923e-21)
(0.0806943 -0.00974761 -1.13167e-19)
(0.0792014 -0.00592363 1.12523e-19)
(0.0775525 -0.00226319 -2.93323e-22)
(0.0757742 0.00119945 1.78506e-21)
(0.0738927 0.00443773 -1.24975e-21)
(0.0719331 0.00743224 -5.27976e-21)
(0.0699189 0.0101701 1.15965e-20)