/*--------------------------------*- C++ -*----------------------------------*\
  =========                 |
  \\      /  F ield         | OpenFOAM: The Open Source CFD Toolbox
   \\    /   O peration     | Website:  https://openfoam.org
    \\  /    A nd           | Version:  12
     \\/     M anipulation  |
\*---------------------------------------------------------------------------*/
FoamFile
{
    format      ascii;
    class       volVectorField;
    location    "340";
    object      UMean;
}
// * * * * * * * * * * * * * * * * * * * * * * * * * * * * * * * * * * * * * //

dimensions      [0 1 -1 0 0 0 0];

internalField   nonuniform List<vector> 
6750
(
(0.200071 -0.00308751 0)
(0.200361 -0.00940431 0)
(0.20065 -0.0151965 0)
(0.200899 -0.0205437 0)
(0.200789 -0.0255439 0)
(0.200037 -0.0034692 0)
(0.200282 -0.010009 0)
(0.200487 -0.0157349 0)
(0.200569 -0.0208024 0)
(0.200459 -0.0253023 0)
(0.200026 -0.0036335 0)
(0.200129 -0.0102401 0)
(0.200147 -0.01584 0)
(0.200029 -0.0206271 0)
(0.199791 -0.0247047 0)
(0.20001 -0.00366753 0)
(0.19996 -0.0101925 0)
(0.199784 -0.0156027 0)
(0.199484 -0.0201293 0)
(0.199114 -0.0239119 0)
(0.199995 -0.00360021 0)
(0.199803 -0.00991485 0)
(0.199444 -0.0150795 0)
(0.198965 -0.0193518 0)
(0.198448 -0.0228959 0)
(0.199983 -0.00344899 0)
(0.199661 -0.00944166 0)
(0.199124 -0.0143037 0)
(0.198463 -0.0183038 0)
(0.197781 -0.0216151 0)
(0.199973 -0.00322823 0)
(0.199527 -0.00880033 0)
(0.198816 -0.0133004 0)
(0.19797 -0.016995 0)
(0.197108 -0.0200545 0)
(0.199964 -0.002949 0)
(0.1994 -0.00801378 0)
(0.19852 -0.0120937 0)
(0.197487 -0.0154424 0)
(0.19644 -0.0182199 0)
(0.199955 -0.00262098 0)
(0.199282 -0.00710467 0)
(0.198241 -0.0107116 0)
(0.197028 -0.0136739 0)
(0.195797 -0.0161363 0)
(0.199948 -0.00225401 0)
(0.199175 -0.00609779 0)
(0.197987 -0.0091881 0)
(0.19661 -0.0117288 0)
(0.195208 -0.0138454 0)
(0.199941 -0.00185853 0)
(0.199083 -0.00502007 0)
(0.197769 -0.0075618 0)
(0.196249 -0.00965381 0)
(0.194696 -0.0114001 0)
(0.199936 -0.0014453 0)
(0.199009 -0.00389934 0)
(0.197592 -0.00587341 0)
(0.195956 -0.00749959 0)
(0.19428 -0.00885911 0)
(0.199933 -0.00102471 0)
(0.198956 -0.00276264 0)
(0.197462 -0.00416281 0)
(0.195739 -0.00531626 0)
(0.193971 -0.00628146 0)
(0.199929 -0.000606074 0)
(0.198924 -0.00163484 0)
(0.197379 -0.00246618 0)
(0.195601 -0.00314955 0)
(0.193772 -0.00372157 0)
(0.199919 -0.000201142 0)
(0.198918 -0.000535595 0)
(0.197342 -0.000812288 0)
(0.195536 -0.00103764 0)
(0.193678 -0.00122607 0)
(0.199919 0.000201082 0)
(0.198918 0.000535545 0)
(0.197342 0.000812291 0)
(0.195536 0.00103771 0)
(0.193678 0.00122621 0)
(0.199929 0.000606014 0)
(0.198924 0.00163479 0)
(0.197379 0.00246618 0)
(0.195601 0.00314963 0)
(0.193772 0.00372172 0)
(0.199933 0.00102465 0)
(0.198956 0.00276259 0)
(0.197462 0.00416282 0)
(0.195739 0.00531634 0)
(0.193971 0.0062816 0)
(0.199936 0.00144524 0)
(0.199009 0.00389929 0)
(0.197592 0.00587342 0)
(0.195956 0.00749967 0)
(0.19428 0.00885926 0)
(0.199941 0.00185848 0)
(0.199083 0.00502002 0)
(0.197769 0.00756181 0)
(0.196249 0.00965389 0)
(0.194696 0.0114002 0)
(0.199948 0.00225396 0)
(0.199175 0.00609775 0)
(0.197987 0.00918811 0)
(0.19661 0.0117289 0)
(0.195208 0.0138455 0)
(0.199955 0.00262093 0)
(0.199282 0.00710464 0)
(0.198241 0.0107116 0)
(0.197028 0.013674 0)
(0.195797 0.0161364 0)
(0.199964 0.00294896 0)
(0.1994 0.00801375 0)
(0.19852 0.0120937 0)
(0.197487 0.0154425 0)
(0.19644 0.01822 0)
(0.199973 0.00322819 0)
(0.199527 0.00880031 0)
(0.198816 0.0133005 0)
(0.197969 0.0169951 0)
(0.197108 0.0200547 0)
(0.199983 0.00344895 0)
(0.199661 0.00944164 0)
(0.199124 0.0143037 0)
(0.198463 0.0183039 0)
(0.197781 0.0216153 0)
(0.199995 0.00360019 0)
(0.199803 0.00991484 0)
(0.199444 0.0150795 0)
(0.198965 0.0193518 0)
(0.198448 0.0228961 0)
(0.20001 0.00366751 0)
(0.19996 0.0101925 0)
(0.199784 0.0156028 0)
(0.199484 0.0201294 0)
(0.199114 0.023912 0)
(0.200026 0.0036335 0)
(0.200129 0.0102401 0)
(0.200147 0.01584 0)
(0.200029 0.0206272 0)
(0.199791 0.0247048 0)
(0.200037 0.0034692 0)
(0.200282 0.010009 0)
(0.200487 0.015735 0)
(0.200569 0.0208025 0)
(0.200459 0.0253023 0)
(0.200071 0.00308751 0)
(0.200361 0.00940433 0)
(0.20065 0.0151966 0)
(0.200899 0.0205438 0)
(0.200789 0.025544 0)
(0.198809 -0.0367028 0)
(0.197225 -0.0419461 0)
(0.195897 -0.0467212 0)
(0.195003 -0.0509828 1.30148e-22)
(0.194403 -0.0546284 0)
(0.194038 -0.0576026 0)
(0.193899 -0.0598439 -9.15655e-21)
(0.19397 -0.0612621 9.24581e-21)
(0.19423 -0.061747 7.80086e-23)
(0.194613 -0.0612421 4.95906e-21)
(0.19509 -0.0596129 4.0187e-23)
(0.195582 -0.0567341 1.7794e-23)
(0.196011 -0.0526626 -2.58521e-21)
(0.196295 -0.0474663 -2.58038e-21)
(0.19636 -0.0412865 -6.02494e-21)
(0.196152 -0.0343306 6.02711e-21)
(0.195641 -0.0268546 -2.39284e-21)
(0.194829 -0.0191366 -2.17591e-21)
(0.193746 -0.0114541 2.15354e-22)
(0.192442 -0.00405822 2.51412e-22)
(0.190971 0.0028467 4.08733e-21)
(0.189412 0.00914581 -5.86556e-23)
(0.187847 0.0147214 6.44267e-21)
(0.186336 0.0195227 -6.3857e-21)
(0.18493 0.0235442 0)
(0.183672 0.026811 0)
(0.182589 0.0293675 -7.00718e-23)
(0.181709 0.0312701 0)
(0.181055 0.0325811 0)
(0.180609 0.0333342 0)
(0.197994 -0.0398976 0)
(0.196569 -0.0450463 0)
(0.195513 -0.0494065 0)
(0.194798 -0.0531833 -1.2304e-22)
(0.19431 -0.0563655 0)
(0.194034 -0.0589168 0)
(0.193969 -0.0607702 9.69028e-21)
(0.194101 -0.0618329 -9.93727e-21)
(0.194403 -0.0620038 -7.34377e-23)
(0.194812 -0.0612408 0)
(0.195297 -0.0593852 0)
(0.195774 -0.0563718 -4.74411e-21)
(0.196176 -0.0522522 4.75905e-21)
(0.196424 -0.0470965 0)
(0.196451 -0.0410395 -1.58446e-20)
(0.196211 -0.0342725 1.58456e-20)
(0.195679 -0.0270279 0)
(0.194859 -0.019558 4.23786e-21)
(0.193778 -0.0121122 -4.2605e-21)
(0.192484 -0.00491759 0)
(0.191038 0.00183978 0)
(0.189503 0.0080395 5.50494e-23)
(0.187949 0.0135774 -6.34675e-21)
(0.186439 0.0184007 6.39242e-21)
(0.185023 0.0224956 0)
(0.183738 0.025878 0)
(0.182614 0.0285834 6.60136e-23)
(0.181671 0.0306596 0)
(0.180937 0.0321668 0)
(0.180419 0.0331722 0)
(0.197224 -0.0423628 0)
(0.1961 -0.0470235 0)
(0.195217 -0.050987 0)
(0.194589 -0.0544496 1.03238e-20)
(0.194172 -0.0573679 -1.0438e-20)
(0.193967 -0.0596826 1.09034e-20)
(0.193969 -0.0613151 -1.10059e-20)
(0.194162 -0.0621714 1.65645e-22)
(0.194512 -0.0621587 0)
(0.194961 -0.0612367 0)
(0.195469 -0.0592359 -1.65206e-22)
(0.195952 -0.0561331 0)
(0.196344 -0.0519709 0)
(0.196565 -0.0468219 -3.73434e-23)
(0.196553 -0.040819 -2.55965e-20)
(0.196262 -0.0341466 2.55973e-20)
(0.195674 -0.0270259 3.27646e-23)
(0.194795 -0.0196951 0)
(0.193658 -0.0123884 0)
(0.192311 -0.00531795 1.11796e-22)
(0.190817 0.00134166 0)
(0.189241 0.00745754 0)
(0.187648 0.0129468 -1.03805e-22)
(0.1861 0.0177568 -5.56883e-21)
(0.184645 0.021871 5.51698e-21)
(0.183319 0.0253007 -4.68412e-21)
(0.182148 0.0280764 4.62054e-21)
(0.181149 0.0302392 0)
(0.180355 0.0318497 0)
(0.17983 0.0330346 0)
(0.196541 -0.0445745 0)
(0.195628 -0.0488345 -2.30979e-20)
(0.194843 -0.0524818 1.16041e-20)
(0.194284 -0.0556704 2.42996e-20)
(0.193937 -0.0583384 -2.45969e-20)
(0.193802 -0.0604184 1.22313e-20)
(0.193871 -0.0618291 0)
(0.194127 -0.062478 3.83262e-22)
(0.194524 -0.0622877 0)
(0.195022 -0.061199 0)
(0.19556 -0.0590578 5.86977e-21)
(0.196058 -0.055868 -5.54482e-21)
(0.196445 -0.0516642 0)
(0.196642 -0.0465223 3.92057e-23)
(0.196585 -0.0405733 -3.47859e-20)
(0.196232 -0.033995 3.47886e-20)
(0.195567 -0.0269983 -3.43999e-23)
(0.194602 -0.0198081 0)
(0.193372 -0.0126448 -3.65087e-21)
(0.191933 -0.00570728 3.4133e-21)
(0.190347 0.0008399 9.60375e-23)
(0.188686 0.00687238 0)
(0.187015 0.0123074 -1.64093e-22)
(0.185395 0.0170962 0)
(0.183872 0.0212216 4.58917e-21)
(0.182485 0.0246921 -8.54453e-21)
(0.181256 0.0275336 7.67635e-21)
(0.180197 0.029781 2.98468e-21)
(0.179341 0.0314911 -6.55677e-21)
(0.17883 0.0328543 0)
(0.195834 -0.0466788 0)
(0.19505 -0.0505931 2.69335e-20)
(0.194346 -0.0539476 -2.64525e-20)
(0.193859 -0.0568679 0)
(0.193583 -0.059287 0)
(0.193517 -0.0611334 4.34248e-22)
(0.193651 -0.0623238 0)
(0.19397 -0.0627668 -4.01482e-22)
(0.194418 -0.0624016 6.27797e-21)
(0.194964 -0.0611404 -6.38107e-21)
(0.195531 -0.058862 -6.07213e-21)
(0.196043 -0.0555809 5.91364e-21)
(0.196424 -0.0513301 1.70184e-22)
(0.196593 -0.046188 -7.95033e-23)
(0.196485 -0.0402843 -4.34131e-20)
(0.196061 -0.0337917 4.34169e-20)
(0.195307 -0.0269116 6.25064e-23)
(0.194239 -0.0198574 -1.14432e-22)
(0.192897 -0.0128366 3.4092e-21)
(0.191342 -0.00603562 -3.28415e-21)
(0.189641 0.000391307 -2.99352e-21)
(0.187868 0.00632788 2.87224e-21)
(0.186092 0.0116951 1.71969e-22)
(0.184375 0.0164472 0)
(0.182763 0.0205676 -1.20751e-22)
(0.181296 0.0240633 0)
(0.179994 0.0269567 0)
(0.178867 0.0292771 -6.01336e-21)
(0.177944 0.0310759 5.76642e-21)
(0.177441 0.0326073 0)
(0.195035 -0.04868 2.87567e-20)
(0.194332 -0.0522671 -4.51441e-20)
(0.193704 -0.0553432 1.48318e-20)
(0.193289 -0.0580079 0)
(0.193084 -0.0601894 1.48645e-20)
(0.193085 -0.0618117 -1.45411e-20)
(0.193284 -0.0627901 1.406e-20)
(0.193663 -0.0630358 -1.45431e-20)
(0.194162 -0.0624984 0)
(0.194752 -0.0610642 -4.25751e-22)
(0.195344 -0.0586512 6.24914e-21)
(0.195867 -0.0552748 -3.33933e-21)
(0.196236 -0.0509694 -5.65056e-22)
(0.19637 -0.0458164 -2.66726e-21)
(0.196206 -0.0399448 -5.14551e-20)
(0.195704 -0.0335233 5.14527e-20)
(0.194854 -0.026746 -1.99664e-21)
(0.193675 -0.0198162 4.06609e-22)
(0.192212 -0.0129303 -1.41993e-21)
(0.190529 -0.00626325 3.14551e-21)
(0.1887 4.05196e-05 1.55261e-22)
(0.186801 0.00587232 0)
(0.184904 0.0111586 -4.25181e-21)
(0.183073 0.0158573 4.32278e-21)
(0.181356 0.0199534 -3.58196e-21)
(0.179793 0.0234535 3.46403e-21)
(0.178405 0.026378 1.64326e-22)
(0.177199 0.0287518 2.59799e-21)
(0.1762 0.0306204 -7.93568e-21)
(0.17569 0.0322972 5.73135e-21)
(0.1941 -0.0505658 -1.55118e-20)
(0.193453 -0.0538422 1.75192e-20)
(0.192896 -0.0566593 1.74292e-20)
(0.192551 -0.0590849 -1.76695e-20)
(0.192414 -0.0610418 1.63203e-20)
(0.192481 -0.0624501 -1.75232e-20)
(0.192743 -0.063225 -5.32271e-22)
(0.193178 -0.063282 0)
(0.193727 -0.0625723 7.3081e-21)
(0.194353 -0.0609667 2.64258e-23)
(0.194966 -0.0584201 -2.32506e-23)
(0.195493 -0.0549441 -6.84961e-21)
(0.195843 -0.0505765 -2.65135e-21)
(0.195936 -0.0454016 4.1382e-21)
(0.195709 -0.0395488 -6.00396e-20)
(0.195125 -0.0331838 5.76975e-20)
(0.194175 -0.0264946 2.89819e-21)
(0.192881 -0.0196765 -2.06776e-21)
(0.191294 -0.0129159 -2.89295e-21)
(0.18948 -0.00637797 1.72607e-22)
(0.187518 -0.000197714 1.19459e-22)
(0.185487 0.00552368 2.23282e-21)
(0.183462 0.0107185 0)
(0.181507 0.015349 6.1504e-23)
(0.179676 0.0194025 -2.62812e-21)
(0.178006 0.0228864 2.80439e-21)
(0.17652 0.02582 -2.30919e-21)
(0.175225 0.0282253 2.12119e-21)
(0.174141 0.0301429 2.32518e-21)
(0.173605 0.0319365 -2.62268e-21)
(0.192995 -0.0523357 0)
(0.192386 -0.0553219 1.68005e-20)
(0.191897 -0.0579007 -2.0444e-20)
(0.191619 -0.0601029 1.90812e-20)
(0.191548 -0.0618463 -1.82286e-20)
(0.191678 -0.0630492 1.64063e-20)
(0.192002 -0.0636271 -1.66272e-20)
(0.192486 -0.063503 -1.06786e-21)
(0.193082 -0.0626154 -5.12222e-22)
(0.193737 -0.0608413 -4.8734e-22)
(0.194365 -0.0581605 -4.51294e-22)
(0.194886 -0.0545801 2.1025e-22)
(0.19521 -0.0501426 -3.11911e-21)
(0.195256 -0.0449358 1.62157e-21)
(0.194962 -0.0390898 -6.40231e-20)
(0.194291 -0.0327681 6.63562e-20)
(0.19324 -0.0261541 7.50682e-22)
(0.191833 -0.0194358 -1.56064e-21)
(0.190123 -0.0127914 8.09019e-23)
(0.18818 -0.00637686 2.97515e-22)
(0.186086 -0.000318893 1.11736e-22)
(0.183923 0.00528875 9.24789e-23)
(0.181768 0.0103843 1.53451e-22)
(0.179687 0.0149345 -2.56903e-21)
(0.177735 0.0189295 2.46058e-21)
(0.175953 0.0223783 -1.81764e-21)
(0.174363 0.0253001 1.6622e-21)
(0.17297 0.0277157 -1.28063e-21)
(0.171795 0.0296615 1.5468e-21)
(0.171213 0.0315413 0)
(0.191689 -0.0539947 0)
(0.191108 -0.056712 1.26092e-21)
(0.190682 -0.0590712 -1.71951e-20)
(0.190469 -0.0610633 3.93373e-22)
(0.190461 -0.0626026 1.98871e-20)
(0.190652 -0.0636068 1.18722e-21)
(0.191035 -0.0639912 1.18964e-21)
(0.191561 -0.0636912 -7.66476e-21)
(0.192198 -0.0626205 9.48698e-21)
(0.192875 -0.0606817 -8.09637e-24)
(0.193509 -0.057863 -3.6725e-21)
(0.194017 -0.0541727 3.69456e-21)
(0.194307 -0.0496583 -1.30612e-21)
(0.1943 -0.0444107 1.51147e-21)
(0.193934 -0.0385612 -7.11315e-20)
(0.193176 -0.0322717 7.11272e-20)
(0.192024 -0.0257216 8.36525e-22)
(0.190506 -0.0190928 -9.34927e-22)
(0.188677 -0.0125559 1.0516e-21)
(0.18661 -0.00625902 -1.3832e-21)
(0.18439 -0.000320995 -3.04799e-23)
(0.182099 0.00517138 1.14504e-21)
(0.179817 0.0101621 -1.32506e-21)
(0.177613 0.0146225 -7.1035e-23)
(0.175541 0.0185459 -1.12738e-22)
(0.173644 0.0219434 9.81068e-22)
(0.171945 0.0248348 -1.90269e-22)
(0.17045 0.0272404 -8.4568e-22)
(0.169179 0.0291946 0)
(0.168535 0.0311303 0)
(0.190149 -0.0555484 0)
(0.18959 -0.0580167 -2.26815e-20)
(0.189226 -0.0601721 3.92873e-22)
(0.189075 -0.061965 4.96931e-22)
(0.189127 -0.0633077 4.12235e-20)
(0.189377 -0.0641182 -2.128e-20)
(0.189812 -0.0643136 -1.24327e-21)
(0.190378 -0.0638361 0)
(0.191048 -0.0625797 8.38827e-21)
(0.191738 -0.0604764 -8.53293e-21)
(0.192371 -0.0575165 3.85615e-21)
(0.192857 -0.0537116 -3.94955e-22)
(0.193107 -0.0491139 -3.50238e-21)
(0.19304 -0.0438181 8.92082e-23)
(0.192599 -0.0379567 -7.60345e-20)
(0.191753 -0.0316903 7.60635e-20)
(0.190502 -0.0251948 -5.11716e-23)
(0.188877 -0.0186467 -1.23892e-21)
(0.186935 -0.0122099 2.77786e-22)
(0.184752 -0.00602512 1.15392e-21)
(0.182413 -0.000204114 -1.11425e-21)
(0.180002 0.00517284 9.81113e-22)
(0.177601 0.0100553 0)
(0.175278 0.0144188 7.42203e-23)
(0.173091 0.0182604 -2.32808e-22)
(0.171081 0.0215931 2.30886e-22)
(0.169273 0.024438 -1.7035e-22)
(0.167675 0.0268155 1.44912e-23)
(0.166304 0.0287598 1.38396e-22)
(0.165585 0.0307227 0)
(0.188345 -0.0570023 -3.01437e-21)
(0.187806 -0.0592389 0)
(0.187501 -0.0612028 -1.43782e-21)
(0.18741 -0.0628052 2.15223e-20)
(0.18752 -0.0639568 -2.34376e-20)
(0.187826 -0.0645768 2.20767e-20)
(0.188305 -0.064587 -2.22389e-20)
(0.18891 -0.0639259 -1.00812e-20)
(0.189603 -0.0624824 2.10549e-20)
(0.1903 -0.0602139 -2.05007e-22)
(0.190923 -0.0571092 -8.39953e-21)
(0.191379 -0.0531853 3.61572e-21)
(0.191581 -0.0484994 -2.0492e-21)
(0.19145 -0.0431496 -2.36248e-21)
(0.190932 -0.0372698 -7.9306e-20)
(0.189997 -0.0310197 8.04035e-20)
(0.18865 -0.0245718 -1.12042e-21)
(0.186924 -0.0180976 -3.56055e-22)
(0.184877 -0.0117547 1.06456e-21)
(0.182586 -0.00567731 -1.11486e-21)
(0.180138 2.96932e-05 4.08833e-22)
(0.177617 0.00529195 6.44191e-22)
(0.175106 0.0100642 -1.65629e-22)
(0.172673 0.0143262 5.99226e-22)
(0.170376 0.0180781 -5.90907e-22)
(0.168259 0.0213353 9.84727e-22)
(0.166346 0.0241203 -1.14274e-21)
(0.164645 0.0264543 1.11904e-22)
(0.163176 0.0283724 0)
(0.162372 0.0303368 2.99181e-23)
(0.186245 -0.0583603 3.135e-21)
(0.185727 -0.0603794 -2.66994e-20)
(0.185479 -0.0621612 2.55767e-20)
(0.185447 -0.063579 1.54816e-21)
(0.185614 -0.0645428 1.52677e-21)
(0.185972 -0.0649729 0)
(0.186486 -0.0648002 -1.46651e-21)
(0.187127 -0.0639475 -1.21777e-20)
(0.187835 -0.0623175 2.04164e-20)
(0.188531 -0.0598812 -1.0841e-20)
(0.189136 -0.0566285 -5.5806e-22)
(0.189556 -0.052582 3.74179e-21)
(0.189704 -0.0478042 -3.76189e-21)
(0.189505 -0.0423966 -9.15787e-23)
(0.188908 -0.0364943 -8.2754e-20)
(0.187886 -0.030256 8.27241e-20)
(0.186446 -0.0238511 4.34385e-23)
(0.184624 -0.0174461 -8.77652e-22)
(0.182481 -0.0111927 8.73068e-22)
(0.180092 -0.00521879 6.15311e-23)
(0.177546 0.000376883 7.00035e-23)
(0.174927 0.00552558 -4.65823e-22)
(0.172316 0.0101868 3.08285e-22)
(0.169783 0.0143442 -1.44149e-22)
(0.167386 0.0180009 0)
(0.165168 0.0211747 1.00859e-22)
(0.163156 0.0238893 1.09802e-22)
(0.161356 0.0261671 -2.19199e-21)
(0.159792 0.028045 2.05521e-21)
(0.158898 0.0299889 -3.11583e-23)
(0.183817 -0.0596243 0)
(0.18332 -0.0614365 -6.40583e-23)
(0.18313 -0.0630422 2.70086e-20)
(0.183156 -0.0642788 -2.75327e-20)
(0.183377 -0.0650561 -2.61312e-20)
(0.183782 -0.0652963 4.05418e-20)
(0.184331 -0.0649384 -1.12025e-20)
(0.184999 -0.0638877 -2.96588e-23)
(0.185715 -0.062071 -1.41008e-21)
(0.186404 -0.0594639 0)
(0.186982 -0.0560604 -4.40431e-21)
(0.187359 -0.051889 8.30019e-21)
(0.187448 -0.0470174 -3.88473e-21)
(0.187179 -0.0415502 9.58274e-23)
(0.186501 -0.0356237 -8.43195e-20)
(0.185394 -0.0293953 8.43486e-20)
(0.183866 -0.0230311 -4.54527e-23)
(0.181956 -0.0166928 -6.58356e-22)
(0.179724 -0.0105264 9.1974e-22)
(0.177249 -0.00465351 -2.63031e-22)
(0.174615 0.000832817 0)
(0.17191 0.00586906 -1.55237e-22)
(0.169212 0.0104191 -8.28917e-23)
(0.166591 0.0144701 1.77069e-21)
(0.164104 0.0180282 -4.84808e-21)
(0.161795 0.0211128 3.44913e-21)
(0.159691 0.0237491 3.73885e-21)
(0.157799 0.0259607 -3.8632e-21)
(0.156144 0.0277871 -7.44111e-23)
(0.155158 0.0296921 0)
(0.181025 -0.0607932 0)
(0.180553 -0.0624054 -2.72791e-20)
(0.180421 -0.0638376 2.97056e-20)
(0.180504 -0.0648942 2.67582e-20)
(0.180777 -0.0654845 -2.91495e-20)
(0.181224 -0.0655345 -1.51396e-20)
(0.181808 -0.064984 8.21909e-22)
(0.182495 -0.063731 1.469e-20)
(0.183212 -0.0617263 2.96338e-21)
(0.183887 -0.058946 0)
(0.184432 -0.05539 0)
(0.184759 -0.0510931 -3.44204e-21)
(0.184786 -0.0461276 4.22796e-21)
(0.184443 -0.0406014 0)
(0.183686 -0.0346515 -8.44833e-20)
(0.182496 -0.0284337 8.44803e-20)
(0.180885 -0.0221106 0)
(0.178894 -0.015839 3.7638e-22)
(0.176584 -0.00975882 -4.07286e-22)
(0.174033 -0.00398603 0)
(0.171325 0.00139196 0)
(0.168546 0.0063165 4.1195e-22)
(0.165773 0.0107555 -1.96815e-21)
(0.163076 0.0146993 -2.5964e-22)
(0.160511 0.0181564 2.10097e-21)
(0.158122 0.0211481 5.21631e-21)
(0.155934 0.0237005 -5.49064e-21)
(0.153957 0.0258386 -5.01212e-21)
(0.152218 0.0276045 5.16176e-21)
(0.151143 0.0294563 0)
(0.177831 -0.0618628 0)
(0.177389 -0.0632757 0)
(0.177316 -0.064536 0)
(0.177456 -0.0654118 -2.87005e-20)
(0.177781 -0.0658119 1.42338e-20)
(0.178264 -0.0656713 1.68894e-20)
(0.17888 -0.0649171 1.79265e-21)
(0.17958 -0.0634605 1.29035e-20)
(0.180294 -0.0612654 -1.15128e-21)
(0.180947 -0.0583102 -1.20606e-20)
(0.181454 -0.0546014 -6.38532e-22)
(0.181726 -0.0501799 -1.11109e-21)
(0.181686 -0.0451229 -2.15667e-21)
(0.181268 -0.0395409 1.60406e-21)
(0.180432 -0.033571 -8.30296e-20)
(0.179163 -0.0273673 8.30363e-20)
(0.177476 -0.0210884 3.63541e-22)
(0.175412 -0.0148856 -2.89534e-22)
(0.173034 -0.00889336 -3.64667e-23)
(0.170419 -0.00322147 -9.53745e-23)
(0.167649 0.00204796 2.18129e-21)
(0.16481 0.00686087 6.24876e-22)
(0.161976 0.0111888 -2.64576e-21)
(0.159216 0.0150251 4.48849e-22)
(0.156585 0.0183801 -2.95317e-21)
(0.154127 0.0212766 -4.09295e-21)
(0.151866 0.0237415 7.22031e-21)
(0.149812 0.0258008 0)
(0.147997 0.0274997 0)
(0.146835 0.0292873 0)
(0.174194 -0.0628219 -3.36865e-20)
(0.173787 -0.0640352 3.55128e-20)
(0.173775 -0.0651225 0)
(0.173974 -0.0658144 -1.63572e-20)
(0.174349 -0.0660205 1.85614e-20)
(0.174869 -0.0656834 1.52273e-20)
(0.175511 -0.064717 -1.93691e-20)
(0.176219 -0.0630558 0)
(0.176924 -0.060668 -1.64077e-21)
(0.17755 -0.0575373 0)
(0.178011 -0.0536771 9.23488e-25)
(0.178225 -0.0491344 7.17952e-24)
(0.178115 -0.0439906 4.74898e-22)
(0.177622 -0.0383586 1.87497e-22)
(0.176709 -0.0323754 -7.98906e-20)
(0.175366 -0.0261921 7.9873e-20)
(0.173609 -0.0199632 -4.51024e-23)
(0.171481 -0.0138344 -8.81547e-24)
(0.169046 -0.0079339 -4.48693e-23)
(0.166379 -0.00236566 -4.82457e-23)
(0.163561 0.00279352 0)
(0.160675 0.00749391 -3.71364e-22)
(0.157794 0.0117105 0)
(0.154984 0.0154389 3.23891e-21)
(0.1523 0.0186912 -4.09341e-21)
(0.149784 0.0214914 -3.97531e-21)
(0.14746 0.0238667 4.38181e-21)
(0.14534 0.0258441 0)
(0.143456 0.0274713 -6.2763e-21)
(0.142215 0.0291873 6.88069e-21)
(0.170065 -0.0636546 0)
(0.169701 -0.0646669 8.04608e-23)
(0.169754 -0.0655776 3.78413e-20)
(0.170014 -0.0660803 -3.6129e-20)
(0.170435 -0.0660883 2.18347e-21)
(0.170994 -0.0655439 -4.18347e-21)
(0.171659 -0.06436 1.98353e-21)
(0.17237 -0.0624925 0)
(0.17306 -0.0599109 0)
(0.173653 -0.0566058 0)
(0.174065 -0.0525978 6.91472e-22)
(0.174216 -0.0479398 -3.66959e-21)
(0.174035 -0.0427172 5.74685e-21)
(0.173467 -0.0370443 -2.43135e-21)
(0.17248 -0.0310573 -7.40169e-20)
(0.171067 -0.0249043 7.48388e-20)
(0.169248 -0.0187343 -2.3703e-22)
(0.167067 -0.0126873 -5.4655e-22)
(0.164587 -0.00688497 6.69847e-22)
(0.16188 -0.00142525 1.53628e-22)
(0.159029 0.00362026 2.63132e-22)
(0.156109 0.00820602 0)
(0.153195 0.01231 0)
(0.15035 0.0159301 5.98436e-22)
(0.147626 0.0190796 -1.36891e-21)
(0.145065 0.021783 7.56293e-22)
(0.142689 0.0240678 1.11306e-20)
(0.140513 0.0259617 -1.01242e-20)
(0.138569 0.0275146 1.15621e-22)
(0.137254 0.029154 0)
(0.165396 -0.0643378 -3.81266e-20)
(0.16508 -0.0651495 3.53604e-20)
(0.165202 -0.0658761 1.65719e-20)
(0.165525 -0.0661813 -1.92648e-20)
(0.165995 -0.0659863 -2.00705e-20)
(0.166592 -0.0652214 2.05582e-20)
(0.167275 -0.0638189 1.63109e-20)
(0.167985 -0.0617429 -1.46081e-20)
(0.168656 -0.0589677 7.80921e-21)
(0.16921 -0.0554917 -6.99068e-21)
(0.169568 -0.0513423 5.96377e-21)
(0.169654 -0.0465781 -3.13831e-21)
(0.1694 -0.0412878 -1.94389e-21)
(0.168759 -0.0355869 8.71347e-23)
(0.167701 -0.0296095 -6.71084e-20)
(0.166225 -0.0234997 6.70837e-20)
(0.164354 -0.0174012 2.08332e-24)
(0.16213 -0.011447 5.63496e-22)
(0.159617 -0.00575204 1.15603e-21)
(0.156886 -0.000408162 -1.64391e-21)
(0.154014 0.00451828 2.35417e-21)
(0.151077 0.00898575 -2.20505e-21)
(0.148145 0.012975 7.2077e-21)
(0.145279 0.0164857 -6.25211e-21)
(0.142528 0.0195321 -6.03366e-21)
(0.139934 0.0221388 5.87643e-21)
(0.137519 0.0243331 6.80062e-21)
(0.135296 0.026143 -7.40544e-21)
(0.133302 0.0276203 -1.17111e-20)
(0.13192 0.0291805 1.10972e-20)
(0.160125 -0.0648432 -2.55277e-21)
(0.159863 -0.0654531 -4.01838e-20)
(0.160061 -0.0659848 4.42205e-20)
(0.160451 -0.0660845 0)
(0.160972 -0.0656756 -2.48399e-21)
(0.161606 -0.0646821 0)
(0.162304 -0.0630593 -2.27712e-21)
(0.16301 -0.060774 1.59642e-20)
(0.163657 -0.057808 -1.71597e-20)
(0.164168 -0.0541674 8.5828e-22)
(0.164468 -0.0498865 -1.47921e-21)
(0.164485 -0.0450289 -6.08892e-22)
(0.164159 -0.0396864 -2.46069e-22)
(0.163446 -0.0339742 -9.04436e-23)
(0.162323 -0.0280239 -5.69374e-20)
(0.160792 -0.0219749 5.69253e-20)
(0.158877 -0.0159639 -2.16214e-24)
(0.156623 -0.010117 -5.70349e-23)
(0.154091 -0.00454195 2.68448e-22)
(0.15135 0.000675973 0)
(0.148475 0.0054756 4.18742e-22)
(0.145536 0.00981926 6.87016e-21)
(0.142601 0.0136903 -6.98727e-21)
(0.139728 0.0170897 -1.06841e-21)
(0.136966 0.0200322 0)
(0.134352 0.0225423 -1.10475e-21)
(0.131909 0.0246466 0)
(0.12965 0.026373 -1.46126e-20)
(0.127615 0.0277748 1.52793e-20)
(0.126174 0.029255 -8.40498e-22)
(0.154181 -0.0651343 -4.055e-20)
(0.153984 -0.0655348 4.25792e-20)
(0.154264 -0.0658602 1.09286e-22)
(0.154722 -0.0657475 2.34417e-20)
(0.155301 -0.0651094 -3.90387e-20)
(0.155969 -0.0638846 2.3283e-20)
(0.156681 -0.06204 2.34401e-21)
(0.157379 -0.0595472 4.7242e-23)
(0.157996 -0.0563961 0)
(0.158459 -0.052601 -8.8635e-22)
(0.158697 -0.0482026 -3.99131e-21)
(0.158645 -0.0432694 6.20871e-21)
(0.158246 -0.0378948 2.33855e-22)
(0.157465 -0.0321932 -4.3751e-22)
(0.156283 -0.0262926 -4.33054e-20)
(0.154705 -0.0203262 4.37846e-20)
(0.152759 -0.0144236 7.21564e-23)
(0.150489 -0.00870269 1.20065e-22)
(0.147953 -0.00326361 -3.12912e-21)
(0.145219 0.00181499 2.81879e-21)
(0.142357 0.00647726 -4.32433e-22)
(0.139434 0.0106893 0)
(0.136513 0.0144368 -1.04927e-21)
(0.13365 0.0177217 1.09978e-21)
(0.13089 0.0205589 -8.51812e-21)
(0.12827 0.0229722 2.05627e-20)
(0.125811 0.0249872 -8.28295e-21)
(0.123528 0.0266312 1.7579e-22)
(0.12146 0.0279583 -1.63311e-20)
(0.119969 0.0293592 1.73821e-20)
(0.14748 -0.0651592 0)
(0.147361 -0.0653401 0)
(0.147729 -0.0654481 -2.52904e-20)
(0.148263 -0.0651115 2.04805e-20)
(0.148901 -0.0642345 0)
(0.149602 -0.0627772 -2.61059e-21)
(0.150325 -0.0607109 -2.53981e-21)
(0.151011 -0.0580154 -2.29174e-21)
(0.151593 -0.0546893 0)
(0.152004 -0.0507546 0)
(0.152178 -0.0462585 -7.83354e-22)
(0.152054 -0.041273 2.50481e-21)
(0.151584 -0.0358927 -2.68421e-21)
(0.150739 -0.0302296 -8.1266e-23)
(0.149505 -0.0244071 -2.74026e-20)
(0.147892 -0.0185511 2.73833e-20)
(0.145928 -0.0127828 -3.0273e-23)
(0.143657 -0.00721146 1.0759e-21)
(0.141135 -0.00192897 -1.34713e-21)
(0.138426 0.002993 0)
(0.135595 0.007504 0)
(0.132707 0.0115738 0)
(0.129819 0.01519 0)
(0.126982 0.0183555 -1.50876e-21)
(0.124242 0.0210847 -1.33618e-21)
(0.12163 0.0234004 0)
(0.119169 0.0253265 -1.28457e-20)
(0.116872 0.0268895 9.87041e-21)
(0.114782 0.0281435 0)
(0.113249 0.0294666 0)
(0.139919 -0.064848 -3.07096e-21)
(0.139893 -0.0647975 0)
(0.140359 -0.0646793 0)
(0.140977 -0.0641022 0)
(0.141673 -0.0629834 0)
(0.142408 -0.0612928 0)
(0.143138 -0.0590089 2.59395e-21)
(0.143806 -0.0561205 1.23021e-21)
(0.144349 -0.0526352 -8.10887e-21)
(0.144703 -0.0485826 2.26433e-21)
(0.144808 -0.0440155 1.35533e-20)
(0.144612 -0.0390087 -8.25289e-21)
(0.144074 -0.0336565 7.36174e-22)
(0.14317 -0.0280676 1.47894e-21)
(0.141894 -0.0223588 -7.15922e-21)
(0.140258 -0.0166479 7.11248e-21)
(0.138291 -0.0110466 -1.18704e-21)
(0.136037 -0.00565439 -5.88782e-22)
(0.133549 -0.000554536 6.09195e-21)
(0.130886 0.00418864 -8.83062e-21)
(0.128109 0.00853016 4.35192e-23)
(0.125276 0.0124434 5.66014e-21)
(0.122441 0.0159178 8.54208e-22)
(0.119651 0.0189565 1.5409e-21)
(0.116948 0.0215733 0)
(0.114362 0.0237892 0)
(0.111912 0.0256263 0)
(0.109614 0.0271095 0)
(0.107513 0.0282922 0)
(0.105945 0.0295396 -1.48802e-21)
(0.131374 -0.064106 6.37716e-21)
(0.131459 -0.0638134 -2.54677e-20)
(0.132033 -0.0634533 2.64689e-20)
(0.13274 -0.0626267 0)
(0.133496 -0.0612656 -2.38256e-20)
(0.134261 -0.0593451 2.75252e-20)
(0.134993 -0.0568533 -2.23477e-20)
(0.135637 -0.0537889 1.89249e-20)
(0.136134 -0.0501684 0)
(0.136426 -0.0460286 6.13598e-21)
(0.136459 -0.0414268 -2.32545e-21)
(0.136191 -0.0364395 -7.92295e-21)
(0.135588 -0.0311593 2.36897e-21)
(0.134633 -0.0256897 2.90339e-22)
(0.133327 -0.0201397 1.71392e-20)
(0.131683 -0.0146175 -1.70287e-20)
(0.129732 -0.00922388 -4.44598e-22)
(0.127516 -0.00404807 -1.93195e-21)
(0.125085 0.000836182 7.41982e-21)
(0.122492 0.00537219 1.0283e-21)
(0.119793 0.00952056 -6.79028e-21)
(0.11704 0.0132581 -9.46312e-22)
(0.114282 0.016576 -1.71613e-20)
(0.111562 0.0194772 1.38877e-20)
(0.108916 0.0219745 -1.37588e-20)
(0.106374 0.0240867 1.54122e-20)
(0.103954 0.0258333 0)
(0.101669 0.0272372 -1.50892e-20)
(0.0995677 0.0283504 1.4609e-20)
(0.0979741 0.0295241 3.27219e-21)
(0.121688 -0.062799 2.07103e-20)
(0.121902 -0.0622526 -2.69484e-20)
(0.122596 -0.0616365 -2.34622e-20)
(0.123392 -0.0605598 2.79508e-20)
(0.124207 -0.0589591 2.84283e-20)
(0.124998 -0.0568191 -5.56816e-20)
(0.125725 -0.0541382 3.81349e-20)
(0.126336 -0.0509253 -9.91442e-21)
(0.126779 -0.0472053 0)
(0.127002 -0.0430214 -7.22868e-21)
(0.126961 -0.0384343 6.54546e-21)
(0.126621 -0.0335205 -3.0248e-22)
(0.125959 -0.0283691 -6.0082e-22)
(0.124964 -0.0230768 6.94807e-22)
(0.123641 -0.0177431 4.68461e-20)
(0.122009 -0.0124645 -4.66375e-20)
(0.120097 -0.00733024 -1.29702e-21)
(0.117945 -0.0024179 9.78044e-22)
(0.115598 0.00220877 -3.95436e-22)
(0.113104 0.00650108 -8.95415e-21)
(0.110512 0.0104253 8.14119e-21)
(0.107869 0.0139617 2.06206e-21)
(0.105216 0.0171028 9.88525e-21)
(0.102591 0.0198511 -2.45867e-20)
(0.100028 0.0222178 3.14776e-20)
(0.0975535 0.0242191 -1.53725e-20)
(0.0951824 0.0258715 -1.81236e-20)
(0.0929296 0.0271952 1.75436e-20)
(0.0908422 0.0282398 1.58731e-20)
(0.0892334 0.0293411 -2.00325e-20)
(0.110656 -0.0607309 3.28928e-20)
(0.11102 -0.0599176 3.8817e-21)
(0.111837 -0.0590451 -4.85021e-21)
(0.112722 -0.0577219 -2.95953e-20)
(0.113589 -0.0558942 -3.35039e-21)
(0.114396 -0.0535571 4.84759e-21)
(0.115106 -0.0507203 6.69528e-23)
(0.115674 -0.0474023 0)
(0.116052 -0.0436358 0)
(0.1162 -0.0394689 -7.28814e-21)
(0.116083 -0.0349643 8.24791e-21)
(0.115674 -0.0301965 3.04636e-22)
(0.114961 -0.0252489 0)
(0.11394 -0.0202093 -3.10522e-24)
(0.112621 -0.0151655 8.20206e-20)
(0.111024 -0.0102011 -8.16715e-20)
(0.10918 -0.00539212 -5.59955e-22)
(0.107123 -0.000803612 0)
(0.104895 0.00351131 3.98253e-22)
(0.102535 0.00751232 -7.55104e-21)
(0.100087 0.0111715 7.28737e-21)
(0.0975874 0.0144723 -1.10889e-21)
(0.0950741 0.0174082 0)
(0.0925789 0.0199812 1.82212e-22)
(0.0901304 0.0222003 3.83179e-21)
(0.0877513 0.0240786 -2.43467e-21)
(0.0854557 0.0256291 2.08479e-20)
(0.0832573 0.0268687 -1.95961e-23)
(0.0812038 0.0278435 1.60204e-21)
(0.0795939 0.0288719 -1.67416e-20)
(0.0980046 -0.0575995 -3.13734e-20)
(0.0985295 -0.0565248 2.68725e-20)
(0.099467 -0.0554024 0)
(0.100431 -0.0538502 -2.71459e-20)
(0.101335 -0.0518257 3.19798e-20)
(0.102142 -0.0493351 -1.45431e-20)
(0.102818 -0.0463988 2.35231e-20)
(0.103327 -0.0430443 -1.06649e-20)
(0.103629 -0.0393105 0)
(0.103695 -0.0352489 0)
(0.1035 -0.0309215 3.1196e-21)
(0.10303 -0.0263987 -3.03813e-21)
(0.102279 -0.0217553 0)
(0.101252 -0.017068 2.46007e-23)
(0.0999636 -0.0124109 1.2357e-19)
(0.0984358 -0.00785287 -1.23608e-19)
(0.096696 -0.00345501 1.45468e-22)
(0.0947758 0.00073082 0)
(0.0927087 0.00466284 3.82991e-21)
(0.0905286 0.00830933 -3.68245e-21)
(0.0882684 0.0116482 0)
(0.0859593 0.0146659 0)
(0.0836302 0.0173567 1.32822e-20)
(0.0813072 0.0197216 -2.4761e-20)
(0.0790138 0.0217668 1.02355e-20)
(0.0767691 0.0235019 -2.25074e-20)
(0.0745847 0.024936 2.49287e-20)
(0.0724732 0.026082 0)
(0.0704816 0.0269817 -2.3918e-20)
(0.0688916 0.0279323 1.89523e-20)
(0.0833413 -0.0529265 -3.14149e-20)
(0.0840246 -0.0516164 3.05517e-20)
(0.0850627 -0.0502747 -3.20106e-20)
(0.0860799 -0.0485405 5.88809e-22)
(0.0869937 -0.0463835 9.85874e-22)
(0.0877721 -0.0438207 4.50856e-20)
(0.0883899 -0.0408815 -1.38137e-20)
(0.0888186 -0.0376004 -1.41998e-21)
(0.089032 -0.0340208 8.99331e-21)
(0.0890105 -0.0301945 -1.63544e-20)
(0.0887421 -0.0261802 7.28385e-21)
(0.0882228 -0.0220407 1.78712e-21)
(0.087457 -0.0178399 -1.7583e-21)
(0.0864562 -0.0136403 6.04181e-23)
(0.0852379 -0.00949989 1.72767e-19)
(0.0838243 -0.00547112 -1.71972e-19)
(0.08224 -0.00159915 -2.46686e-21)
(0.080511 0.00207841 6.18825e-21)
(0.0786631 0.00553149 -3.80028e-21)
(0.0767216 0.00873716 -1.1236e-20)
(0.0747102 0.011679 2.33703e-20)
(0.0726515 0.0143465 -1.19644e-20)