/*--------------------------------*- C++ -*----------------------------------*\
  =========                 |
  \\      /  F ield         | OpenFOAM: The Open Source CFD Toolbox
   \\    /   O peration     | Website:  https://openfoam.org
    \\  /    A nd           | Version:  12
     \\/     M anipulation  |
\*---------------------------------------------------------------------------*/
FoamFile
{
    format      ascii;
    class       volSymmTensorField;
    location    "340";
    object      UPrime2Mean;
}
// * * * * * * * * * * * * * * * * * * * * * * * * * * * * * * * * * * * * * //

dimensions      [0 2 -2 0 0 0 0];

internalField   nonuniform List<symmTensor> 
6750
(
(2.06272e-10 2.90349e-09 0 7.98334e-08 0 0)
(4.87227e-09 5.64307e-08 0 1.12278e-06 0 0)
(1.58087e-08 1.90697e-07 0 3.59871e-06 0 0)
(2.93616e-08 3.88001e-07 0 7.5377e-06 0 0)
(6.95985e-08 8.3003e-07 0 1.28098e-05 0 0)
(1.84508e-11 2.97312e-10 0 6.02918e-08 0 0)
(8.72196e-10 2.29316e-08 0 9.39188e-07 0 0)
(6.03468e-09 1.14445e-07 0 3.07528e-06 0 0)
(2.08101e-08 3.20139e-07 0 6.43285e-06 0 0)
(5.5463e-08 6.98029e-07 0 1.07966e-05 0 0)
(1.52331e-11 3.25491e-10 0 5.48247e-08 0 0)
(6.82176e-10 2.24161e-08 0 8.55293e-07 0 0)
(6.12717e-09 1.21702e-07 0 2.7644e-06 0 0)
(2.39482e-08 3.46815e-07 0 5.65699e-06 0 0)
(6.23943e-08 7.17925e-07 0 9.22087e-06 0 0)
(1.29978e-11 2.99047e-10 0 4.79654e-08 0 0)
(9.77231e-10 2.63848e-08 0 7.54889e-07 0 0)
(8.32734e-09 1.38173e-07 0 2.41443e-06 0 0)
(3.05543e-08 3.75962e-07 0 4.87155e-06 0 0)
(7.37414e-08 7.39799e-07 0 7.82996e-06 0 0)
(9.94924e-12 2.31435e-10 0 4.02996e-08 0 0)
(1.3078e-09 2.86706e-08 0 6.45565e-07 0 0)
(1.08025e-08 1.47521e-07 0 2.05788e-06 0 0)
(3.77699e-08 3.90417e-07 0 4.12406e-06 0 0)
(8.68981e-08 7.47803e-07 0 6.58718e-06 0 0)
(6.79979e-12 1.3219e-10 0 3.27735e-08 0 0)
(1.56313e-09 2.87838e-08 0 5.36281e-07 0 0)
(1.30737e-08 1.49015e-07 0 1.71154e-06 0 0)
(4.49984e-08 3.90887e-07 0 3.42126e-06 0 0)
(1.01698e-07 7.41454e-07 0 5.44991e-06 0 0)
(5.34552e-12 3.23413e-11 0 2.58721e-08 0 0)
(1.75495e-09 2.74702e-08 0 4.3226e-07 0 0)
(1.52024e-08 1.4492e-07 0 1.38413e-06 0 0)
(5.24962e-08 3.80715e-07 0 2.76567e-06 0 0)
(1.18504e-07 7.21559e-07 0 4.40107e-06 0 0)
(6.55917e-12 -4.67816e-11 0 1.97783e-08 0 0)
(1.91929e-09 2.53423e-08 0 3.36527e-07 0 0)
(1.73135e-08 1.36793e-07 0 1.08183e-06 0 0)
(6.04299e-08 3.61423e-07 0 2.1628e-06 0 0)
(1.37225e-07 6.87002e-07 0 3.44072e-06 0 0)
(1.0462e-11 -9.82302e-11 0 1.45364e-08 0 0)
(2.07747e-09 2.27088e-08 0 2.51067e-07 0 0)
(1.94345e-08 1.25303e-07 0 8.1018e-07 0 0)
(6.86444e-08 3.33254e-07 0 1.62113e-06 0 0)
(1.57115e-07 6.36013e-07 0 2.57905e-06 0 0)
(1.64002e-11 -1.23142e-10 0 1.01433e-08 0 0)
(2.23371e-09 1.97016e-08 0 1.77308e-07 0 0)
(2.15032e-08 1.10769e-07 0 5.74109e-07 0 0)
(7.67386e-08 2.96354e-07 0 1.1498e-06 0 0)
(1.76973e-07 5.67804e-07 0 1.82945e-06 0 0)
(2.33316e-11 -1.26022e-10 0 6.58424e-09 0 0)
(2.38154e-09 1.63915e-08 0 1.16237e-07 0 0)
(2.34101e-08 9.35507e-08 0 3.77511e-07 0 0)
(8.41991e-08 2.51467e-07 0 7.56708e-07 0 0)
(1.95401e-07 4.83391e-07 0 1.20419e-06 0 0)
(3.01321e-11 -1.12163e-10 0 3.83785e-09 0 0)
(2.50884e-09 1.28443e-08 0 6.83573e-08 0 0)
(2.50334e-08 7.4176e-08 0 2.22675e-07 0 0)
(9.0536e-08 2.00089e-07 0 4.46714e-07 0 0)
(2.11117e-07 3.85607e-07 0 7.10994e-07 0 0)
(3.5644e-11 -8.58331e-11 0 1.87078e-09 0 0)
(2.60035e-09 9.14197e-09 0 3.36528e-08 0 0)
(2.62668e-08 5.33428e-08 0 1.10031e-07 0 0)
(9.53679e-08 1.44271e-07 0 2.20916e-07 0 0)
(2.23173e-07 2.78563e-07 0 3.5166e-07 0 0)
(3.7929e-11 -4.92494e-11 0 6.33632e-10 0 0)
(2.63429e-09 5.38722e-09 0 1.15991e-08 0 0)
(2.70362e-08 3.18435e-08 0 3.81547e-08 0 0)
(9.84773e-08 8.63145e-08 0 7.66674e-08 0 0)
(2.31055e-07 1.66896e-07 0 1.22059e-07 0 0)
(3.3245e-11 -1.20481e-11 0 6.84326e-11 0 0)
(2.562e-09 1.70816e-09 0 1.20617e-09 0 0)
(2.73205e-08 1.04505e-08 0 4.06771e-09 0 0)
(9.98642e-08 2.84477e-08 0 8.21007e-09 0 0)
(2.3475e-07 5.51102e-08 0 1.30946e-08 0 0)
(3.32926e-11 9.31534e-12 0 8.53319e-11 0 0)
(2.56246e-09 -1.76192e-09 0 1.28783e-09 0 0)
(2.73196e-08 -1.06401e-08 0 4.23373e-09 0 0)
(9.98611e-08 -2.87957e-08 0 8.44513e-09 0 0)
(2.34741e-07 -5.56144e-08 0 1.33852e-08 0 0)
(3.78641e-11 4.74629e-11 0 6.84502e-10 0 0)
(2.63316e-09 -5.44129e-09 0 1.18515e-08 0 0)
(2.70321e-08 -3.20311e-08 0 3.86603e-08 0 0)
(9.8466e-08 -8.66567e-08 0 7.73811e-08 0 0)
(2.31027e-07 -1.67388e-07 0 1.2294e-07 0 0)
(3.55038e-11 8.48568e-11 0 1.95614e-09 0 0)
(2.59808e-09 -9.1931e-09 0 3.4081e-08 0 0)
(2.62595e-08 -5.35232e-08 0 1.10886e-07 0 0)
(9.53482e-08 -1.44598e-07 0 2.2212e-07 0 0)
(2.23124e-07 -2.79027e-07 0 3.53143e-07 0 0)
(2.99631e-11 1.12226e-10 0 3.95588e-09 0 0)
(2.50575e-09 -1.28902e-08 0 6.8963e-08 0 0)
(2.50235e-08 -7.43448e-08 0 2.23883e-07 0 0)
(9.05099e-08 -2.00394e-07 0 4.4841e-07 0 0)
(2.11052e-07 -3.86031e-07 0 7.13078e-07 0 0)
(2.31777e-11 1.27353e-10 0 6.73165e-09 0 0)
(2.37809e-09 -1.64308e-08 0 1.17019e-07 0 0)
(2.33991e-08 -9.37051e-08 0 3.7907e-07 0 0)
(8.41695e-08 -2.51745e-07 0 7.58889e-07 0 0)
(1.95321e-07 -4.83759e-07 0 1.20686e-06 0 0)
(1.63074e-11 1.25796e-10 0 1.03155e-08 0 0)
(2.23032e-09 -1.97333e-08 0 1.78264e-07 0 0)
(2.14923e-08 -1.10908e-07 0 5.76016e-07 0 0)
(7.67077e-08 -2.96601e-07 0 1.15246e-06 0 0)
(1.76879e-07 -5.68104e-07 0 1.83268e-06 0 0)
(1.04768e-11 1.02158e-10 0 1.47279e-08 0 0)
(2.0741e-09 -2.27303e-08 0 2.52188e-07 0 0)
(1.94223e-08 -1.25418e-07 0 8.12423e-07 0 0)
(6.86118e-08 -3.33461e-07 0 1.6242e-06 0 0)
(1.57015e-07 -6.36233e-07 0 2.58272e-06 0 0)
(6.70823e-12 5.19208e-11 0 1.9982e-08 0 0)
(1.91527e-09 -2.53464e-08 0 3.37796e-07 0 0)
(1.72957e-08 -1.36863e-07 0 1.08439e-06 0 0)
(6.03863e-08 -3.61555e-07 0 2.16627e-06 0 0)
(1.3712e-07 -6.87139e-07 0 3.44478e-06 0 0)
(5.61957e-12 -2.6383e-11 0 2.60801e-08 0 0)
(1.75063e-09 -2.7456e-08 0 4.33647e-07 0 0)
(1.51815e-08 -1.44942e-07 0 1.38698e-06 0 0)
(5.24518e-08 -3.80802e-07 0 2.76966e-06 0 0)
(1.18402e-07 -7.21671e-07 0 4.40599e-06 0 0)
(7.16872e-12 -1.26255e-10 0 3.29795e-08 0 0)
(1.55957e-09 -2.87596e-08 0 5.37762e-07 0 0)
(1.30566e-08 -1.49022e-07 0 1.71468e-06 0 0)
(4.49689e-08 -3.90996e-07 0 3.42577e-06 0 0)
(1.01617e-07 -7.416e-07 0 5.45568e-06 0 0)
(1.03632e-11 -2.25942e-10 0 4.04997e-08 0 0)
(1.30493e-09 -2.86378e-08 0 6.47124e-07 0 0)
(1.07884e-08 -1.47514e-07 0 2.06133e-06 0 0)
(3.77465e-08 -3.9053e-07 0 4.12925e-06 0 0)
(8.68238e-08 -7.4795e-07 0 6.59407e-06 0 0)
(1.33863e-11 -2.945e-10 0 4.81571e-08 0 0)
(9.74994e-10 -2.63476e-08 0 7.56505e-07 0 0)
(8.31608e-09 -1.3816e-07 0 2.41817e-06 0 0)
(3.0537e-08 -3.76102e-07 0 4.87756e-06 0 0)
(7.3672e-08 -7.3993e-07 0 7.8382e-06 0 0)
(1.55041e-11 -3.2197e-10 0 5.50069e-08 0 0)
(6.79934e-10 -2.23756e-08 0 8.56942e-07 0 0)
(6.1169e-09 -1.21682e-07 0 2.76842e-06 0 0)
(2.39281e-08 -3.46923e-07 0 5.66382e-06 0 0)
(6.2321e-08 -7.17918e-07 0 9.23074e-06 0 0)
(1.85519e-11 -2.95363e-10 0 6.04625e-08 0 0)
(8.69006e-10 -2.28963e-08 0 9.40835e-07 0 0)
(6.023e-09 -1.14421e-07 0 3.07952e-06 0 0)
(2.07853e-08 -3.20198e-07 0 6.44048e-06 0 0)
(5.53901e-08 -6.9778e-07 0 1.08082e-05 0 0)
(2.05853e-10 -2.90168e-09 0 7.99916e-08 0 0)
(4.86454e-09 -5.63898e-08 0 1.12436e-06 0 0)
(1.57889e-08 -1.90618e-07 0 3.60296e-06 0 0)
(2.93267e-08 -3.87804e-07 0 7.54573e-06 0 0)
(6.95148e-08 -8.29291e-07 0 1.28226e-05 0 0)
(7.39934e-07 4.59349e-06 0 3.11097e-05 0 0)
(1.72418e-06 8.43359e-06 0 4.39131e-05 0 0)
(3.03021e-06 1.29194e-05 0 5.79604e-05 0 0)
(4.4403e-06 1.75498e-05 -4.07434e-25 7.25821e-05 -1.0684e-24 8.23829e-43)
(5.91256e-06 2.22036e-05 0 8.69392e-05 0 0)
(7.40694e-06 2.67318e-05 0 0.000100324 0 0)
(8.8706e-06 3.09536e-05 4.1681e-23 0.000112089 1.10144e-22 3.18261e-39)
(1.0266e-05 3.4708e-05 -4.59974e-23 0.000121592 -1.20386e-22 3.23866e-39)
(1.15404e-05 3.78165e-05 -3.90195e-25 0.000128195 -1.0155e-24 1.82072e-43)
(1.27561e-05 4.03531e-05 -2.71145e-23 0.000131824 -6.99659e-23 6.87734e-40)
(1.38505e-05 4.21287e-05 5.24413e-26 0.000131967 -6.10968e-26 1.39117e-42)
(1.48481e-05 4.30275e-05 1.42763e-25 0.000127965 2.0811e-25 1.64104e-42)
(1.5763e-05 4.31273e-05 1.60528e-23 0.000120509 3.87801e-23 1.6377e-40)
(1.66159e-05 4.24597e-05 1.6447e-23 0.000110132 3.8548e-23 1.33972e-40)
(1.74302e-05 4.10705e-05 3.95497e-23 9.76071e-05 8.93367e-23 6.01919e-40)
(1.82281e-05 3.90061e-05 -4.06849e-23 8.386e-05 -8.80645e-23 6.02031e-40)
(1.90365e-05 3.63134e-05 1.67874e-23 6.98595e-05 3.45347e-23 8.07351e-41)
(1.98827e-05 3.30308e-05 1.60545e-23 5.64939e-05 3.1106e-23 5.82486e-41)
(2.07965e-05 2.92043e-05 -8.6608e-25 4.45174e-05 -1.59889e-24 1.74644e-42)
(2.1816e-05 2.48966e-05 -9.35367e-25 3.44819e-05 -1.55128e-24 1.51383e-42)
(2.30164e-05 2.02069e-05 -3.29748e-23 2.66969e-05 -4.95316e-23 2.05219e-40)
(2.44058e-05 1.51295e-05 5.07415e-25 2.10666e-05 6.65313e-25 4.13595e-44)
(2.59424e-05 9.772e-06 -6.20885e-23 1.76186e-05 -7.0378e-23 5.39024e-40)
(2.76277e-05 4.26428e-06 6.3146e-23 1.61342e-05 5.89546e-23 5.29525e-40)
(2.94438e-05 -1.26991e-06 0 1.62769e-05 0 0)
(3.13503e-05 -6.71405e-06 0 1.76591e-05 0 0)
(3.32971e-05 -1.19607e-05 9.70952e-25 1.98928e-05 3.2956e-25 8.7102e-44)
(3.52566e-05 -1.69028e-05 0 2.26227e-05 0 0)
(3.72782e-05 -2.1409e-05 0 2.55171e-05 0 0)
(3.91303e-05 -2.53393e-05 0 2.82156e-05 0 0)
(1.15715e-06 6.32879e-06 0 3.73269e-05 0 0)
(2.26904e-06 1.04562e-05 0 5.10667e-05 0 0)
(3.5576e-06 1.4818e-05 0 6.48622e-05 0 0)
(4.93225e-06 1.9246e-05 4.06898e-25 7.85624e-05 1.06081e-24 7.3279e-43)
(6.3783e-06 2.36783e-05 0 9.16595e-05 0 0)
(7.8507e-06 2.79639e-05 0 0.000103618 0 0)
(9.30438e-06 3.19435e-05 -3.99739e-23 0.000113885 -1.0342e-22 2.75101e-39)
(1.0711e-05 3.54821e-05 4.46605e-23 0.000121916 1.1378e-22 2.88099e-39)
(1.20284e-05 3.84343e-05 3.75291e-25 0.000127202 9.47129e-25 1.60491e-43)
(1.33215e-05 4.08994e-05 0 0.00012985 0 0)
(1.45169e-05 4.26271e-05 0 0.000129109 0 0)
(1.56626e-05 4.35988e-05 2.88877e-23 0.000124762 6.84834e-23 5.05755e-40)
(1.67416e-05 4.38324e-05 -3.03724e-23 0.000117403 -6.97771e-23 5.08941e-40)
(1.77679e-05 4.3346e-05 0 0.000107514 0 0)
(1.87501e-05 4.21621e-05 1.10923e-22 9.57715e-05 2.38063e-22 4.44201e-39)
(1.96954e-05 4.03058e-05 -1.14347e-22 8.29633e-05 -2.35521e-22 4.43918e-39)
(2.06166e-05 3.7808e-05 0 6.9904e-05 0 0)
(2.15336e-05 3.47065e-05 -3.26093e-23 5.73588e-05 -6.06051e-23 2.46798e-40)
(2.24734e-05 3.10476e-05 3.33688e-23 4.59706e-05 5.82336e-23 2.49235e-40)
(2.34757e-05 2.68986e-05 0 3.62313e-05 0 0)
(2.45723e-05 2.23259e-05 0 2.84324e-05 0 0)
(2.58075e-05 1.73788e-05 -4.93345e-25 2.25833e-05 -6.50148e-25 3.63946e-44)
(2.71916e-05 1.21655e-05 6.1441e-23 1.87136e-05 6.97697e-23 4.87271e-40)
(2.87004e-05 6.78376e-06 -6.32661e-23 1.66759e-05 -6.04748e-23 4.95399e-40)
(3.03267e-05 1.35106e-06 0 1.62179e-05 0 0)
(3.20448e-05 -4.02243e-06 0 1.70239e-05 0 0)
(3.38109e-05 -9.2395e-06 -9.2488e-25 1.87577e-05 -3.9911e-25 7.72688e-44)
(3.55816e-05 -1.4215e-05 0 2.10983e-05 0 0)
(3.73941e-05 -1.88711e-05 0 2.3762e-05 0 0)
(3.91861e-05 -2.32648e-05 0 2.65734e-05 0 0)
(1.60892e-06 7.96879e-06 0 4.22051e-05 0 0)
(2.70141e-06 1.18997e-05 0 5.53882e-05 0 0)
(3.97662e-06 1.60977e-05 0 6.83982e-05 0 0)
(5.36945e-06 2.04268e-05 -2.75769e-23 8.12359e-05 -7.0993e-23 2.97408e-39)
(6.84416e-06 2.47657e-05 3.2059e-23 9.342e-05 8.13285e-23 3.04427e-39)
(8.35774e-06 2.89617e-05 -3.79738e-23 0.000104423 -9.57845e-23 3.05313e-39)
(9.88073e-06 3.28809e-05 4.24839e-23 0.000113718 1.05164e-22 3.11083e-39)
(1.13922e-05 3.64029e-05 -7.42636e-25 0.000120817 -1.81348e-24 7.22497e-43)
(1.28671e-05 3.9417e-05 0 0.000125316 0 0)
(1.43619e-05 4.2008e-05 0 0.000127369 0 0)
(1.58053e-05 4.38952e-05 9.24197e-25 0.000126114 2.08777e-24 5.98284e-43)
(1.72464e-05 4.51037e-05 0 0.000121655 0 0)
(1.86453e-05 4.55994e-05 0 0.000114471 0 0)
(2.0002e-05 4.53782e-05 2.70726e-25 0.000105017 5.51757e-25 2.89845e-44)
(2.13039e-05 4.44349e-05 2.00058e-22 9.39033e-05 3.92844e-22 1.26366e-38)
(2.25371e-05 4.27722e-05 -2.07059e-22 8.18293e-05 -3.8968e-22 1.26364e-38)
(2.36944e-05 4.04056e-05 -2.9184e-25 6.95122e-05 -5.24941e-25 2.07899e-44)
(2.4781e-05 3.73672e-05 0 5.76216e-05 0 0)
(2.58171e-05 3.37078e-05 0 4.67275e-05 0 0)
(2.68395e-05 2.94996e-05 -1.17091e-24 3.72657e-05 -1.75197e-24 2.26463e-43)
(2.78919e-05 2.48273e-05 0 2.95126e-05 0 0)
(2.90164e-05 1.97895e-05 0 2.36007e-05 0 0)
(3.02356e-05 1.4473e-05 1.11686e-24 1.94993e-05 1.22026e-24 1.46452e-43)
(3.15535e-05 8.99026e-06 7.02008e-23 1.71118e-05 6.52841e-23 5.10671e-40)
(3.297e-05 3.45903e-06 -7.07814e-23 1.62429e-05 -5.43909e-23 5.01201e-40)
(3.44728e-05 -2.01032e-06 7.04147e-23 1.66306e-05 4.26251e-23 4.30234e-40)
(3.60362e-05 -7.31943e-06 -7.11587e-23 1.79819e-05 -3.15681e-23 4.19535e-40)
(3.76233e-05 -1.23814e-05 0 2.00006e-05 0 0)
(3.9212e-05 -1.7119e-05 0 2.24135e-05 0 0)
(4.05297e-05 -2.16633e-05 0 2.51349e-05 0 0)
(2.05552e-06 9.52253e-06 0 4.68035e-05 0 0)
(3.13383e-06 1.331e-05 4.11961e-23 5.94556e-05 1.08048e-22 1.37985e-38)
(4.4428e-06 1.74582e-05 -2.52378e-23 7.17836e-05 -6.42255e-23 3.64188e-39)
(5.89222e-06 2.17567e-05 -6.18191e-23 8.38039e-05 -1.55706e-22 1.43517e-38)
(7.43811e-06 2.6059e-05 7.21099e-23 9.50577e-05 1.78377e-22 1.41764e-38)
(9.05262e-06 3.02372e-05 -4.05283e-23 0.000105058 -9.80112e-23 3.44295e-39)
(1.07214e-05 3.41812e-05 0 0.000113333 0 0)
(1.24236e-05 3.77717e-05 -1.57073e-24 0.00011946 -3.59794e-24 3.05859e-42)
(1.41797e-05 4.09752e-05 0 0.000123196 0 0)
(1.5982e-05 4.37552e-05 0 0.000124576 0 0)
(1.78129e-05 4.58991e-05 -3.50268e-23 0.000122836 -7.28032e-23 7.26393e-40)
(1.96868e-05 4.7412e-05 3.54642e-23 0.000118279 7.04847e-23 6.47793e-40)
(2.15518e-05 4.82272e-05 0 0.000111284 0 0)
(2.33872e-05 4.83155e-05 -3.10665e-25 0.000102279 -5.70711e-25 3.19474e-44)
(2.51529e-05 4.76437e-05 3.0859e-22 9.18134e-05 5.44247e-22 2.53571e-38)
(2.68073e-05 4.6192e-05 -3.20696e-22 8.04988e-05 -5.41147e-22 2.5356e-38)
(2.83189e-05 4.39603e-05 3.3833e-25 6.89556e-05 5.46239e-25 2.29148e-44)
(2.96743e-05 4.09741e-05 0 5.77621e-05 0 0)
(3.08838e-05 3.72868e-05 4.3356e-23 4.74159e-05 6.29868e-23 2.76668e-40)
(3.1982e-05 3.29796e-05 -4.10511e-23 3.83072e-05 -5.60105e-23 2.41921e-40)
(3.30208e-05 2.81543e-05 -1.34633e-24 3.07e-05 -1.69483e-24 2.23311e-43)
(3.40525e-05 2.29226e-05 0 2.47327e-05 0 0)
(3.51154e-05 1.73968e-05 2.61633e-24 2.04239e-05 2.66762e-24 6.906e-43)
(3.62353e-05 1.16996e-05 0 1.77087e-05 0 0)
(3.74263e-05 5.9544e-06 -7.94627e-23 1.64393e-05 -5.95467e-23 5.16932e-40)
(3.86883e-05 2.74868e-07 1.55206e-22 1.64032e-05 9.4187e-23 1.87256e-39)
(4.00139e-05 -5.23787e-06 -1.52531e-22 1.73509e-05 -7.07161e-23 1.67357e-39)
(4.13897e-05 -1.04936e-05 -7.3815e-23 1.90179e-05 -2.39293e-23 3.45151e-40)
(4.27671e-05 -1.54148e-05 1.51798e-22 2.11488e-05 2.84824e-23 1.45368e-39)
(4.3517e-05 -2.02141e-05 0 2.37336e-05 0 0)
(2.545e-06 1.11402e-05 0 5.1316e-05 0 0)
(3.65601e-06 1.48854e-05 -4.64715e-23 6.33807e-05 -1.20762e-22 1.58687e-38)
(5.03754e-06 1.90312e-05 5.50154e-23 7.49383e-05 1.3837e-22 1.53392e-38)
(6.5805e-06 2.33252e-05 0 8.60317e-05 0 0)
(8.24958e-06 2.76327e-05 0 9.6252e-05 0 0)
(1.00344e-05 3.18509e-05 -1.36265e-24 0.000105162 -3.1182e-24 3.53466e-42)
(1.19319e-05 3.58821e-05 0 0.000112352 0 0)
(1.39262e-05 3.96108e-05 1.75185e-24 0.000117465 3.73423e-24 3.35937e-42)
(1.60641e-05 4.30511e-05 -3.0804e-23 0.000120433 -6.28741e-23 7.88534e-40)
(1.83031e-05 4.60706e-05 3.3999e-23 0.000121091 6.6232e-23 8.00488e-40)
(2.06604e-05 4.85203e-05 3.81829e-23 0.000118921 7.14047e-23 7.4277e-40)
(2.31102e-05 5.03653e-05 -4.01064e-23 0.000114293 -7.11936e-23 7.04247e-40)
(2.55945e-05 5.15259e-05 -1.33013e-24 0.000107532 -2.25959e-24 6.06289e-43)
(2.80627e-05 5.19453e-05 7.04319e-25 9.90352e-05 1.14564e-24 1.38711e-43)
(3.04416e-05 5.15659e-05 4.41918e-22 8.9286e-05 6.90552e-22 4.29138e-38)
(3.26562e-05 5.03467e-05 -4.60878e-22 7.88089e-05 -6.88647e-22 4.29117e-38)
(3.46443e-05 4.82718e-05 -7.83529e-25 6.8126e-05 -1.12285e-24 1.01631e-43)
(3.63702e-05 4.53578e-05 1.58991e-24 5.77217e-05 2.17666e-24 3.62052e-43)
(3.78319e-05 4.16564e-05 -5.08033e-23 4.80169e-05 -6.60486e-23 3.08994e-40)
(3.90619e-05 3.72539e-05 4.96642e-23 3.93513e-05 6.10248e-23 2.878e-40)
(4.0119e-05 3.2263e-05 5.1588e-23 3.19693e-05 5.89585e-23 2.55836e-40)
(4.10709e-05 2.68105e-05 -5.0013e-23 2.60146e-05 -5.27464e-23 2.36824e-40)
(4.1978e-05 2.10295e-05 -3.02996e-24 2.15402e-05 -2.88843e-24 7.58483e-43)
(4.28876e-05 1.50571e-05 0 1.85191e-05 0 0)
(4.38313e-05 9.02593e-06 2.93851e-24 1.68504e-05 2.11249e-24 6.11672e-43)
(4.4823e-05 3.05724e-06 0 1.6372e-05 0 0)
(4.58704e-05 -2.74123e-06 0 1.688e-05 0 0)
(4.69866e-05 -8.27182e-06 1.73091e-22 1.81474e-05 6.0851e-23 1.69294e-39)
(4.81217e-05 -1.34561e-05 -1.67566e-22 1.9941e-05 -3.85416e-23 1.54597e-39)
(4.82517e-05 -1.86372e-05 0 2.23149e-05 0 0)
(3.13327e-06 1.2916e-05 -4.0884e-23 5.55924e-05 -1.01902e-22 1.56084e-38)
(4.33135e-06 1.66912e-05 7.59936e-23 6.68942e-05 1.92522e-22 3.84624e-38)
(5.82854e-06 2.08626e-05 -3.00851e-23 7.75495e-05 -7.30586e-23 4.14924e-39)
(7.51651e-06 2.51833e-05 0 8.76096e-05 0 0)
(9.37542e-06 2.95391e-05 -4.19307e-23 9.67161e-05 -9.37697e-23 3.93229e-39)
(1.14106e-05 3.38431e-05 4.67567e-23 0.000104479 9.95143e-23 3.78338e-39)
(1.36291e-05 3.80039e-05 -5.32515e-23 0.000110552 -1.08394e-22 3.50019e-39)
(1.60214e-05 4.19108e-05 6.16604e-23 0.000114654 1.18622e-22 3.80307e-39)
(1.86586e-05 4.56105e-05 0 0.000116846 0 0)
(2.14727e-05 4.88883e-05 2.37086e-24 0.000116789 4.11688e-24 3.26917e-42)
(2.45012e-05 5.16534e-05 -4.19412e-23 0.000114256 -6.95009e-23 7.59707e-40)
(2.76828e-05 5.38334e-05 2.29059e-23 0.000109611 3.56099e-23 2.08042e-40)
(3.09478e-05 5.53401e-05 3.15594e-24 0.000103145 4.499e-24 4.99289e-42)
(3.42101e-05 5.60935e-05 2.53342e-23 9.52214e-05 3.61349e-23 1.53617e-40)
(3.73574e-05 5.60159e-05 6.04184e-22 8.62589e-05 8.30264e-22 6.57219e-38)
(4.02745e-05 5.50475e-05 -6.31794e-22 7.66946e-05 -8.30965e-22 6.5716e-38)
(4.28634e-05 5.31569e-05 3.01017e-23 6.69539e-05 3.81219e-23 1.1576e-40)
(4.50617e-05 5.03486e-05 -3.99438e-24 5.74278e-05 -4.85391e-24 3.44166e-42)
(4.68532e-05 4.66685e-05 2.95143e-23 4.84589e-05 3.4161e-23 7.66228e-41)
(4.82682e-05 4.22023e-05 -6.01586e-23 4.03319e-05 -6.63398e-23 3.40323e-40)
(4.93743e-05 3.70683e-05 -3.71429e-24 3.32653e-05 -3.84273e-24 1.1179e-42)
(5.02575e-05 3.14055e-05 0 2.74054e-05 0 0)
(5.10032e-05 2.53629e-05 1.1362e-22 2.28283e-05 9.97787e-23 8.43089e-40)
(5.1684e-05 1.90916e-05 -1.16298e-22 1.95434e-05 -9.19869e-23 8.78221e-40)
(5.23531e-05 1.27368e-05 1.11789e-22 1.74952e-05 7.71778e-23 7.09726e-40)
(5.30413e-05 6.42961e-06 -1.0735e-22 1.65711e-05 -6.32854e-23 6.50032e-40)
(5.37715e-05 2.88118e-07 -6.53936e-24 1.66151e-05 -3.12267e-24 2.19945e-42)
(5.45809e-05 -5.57772e-06 -1.0021e-22 1.74418e-05 -3.74368e-23 4.78239e-40)
(5.54303e-05 -1.10821e-05 2.91179e-22 1.88457e-05 7.68299e-23 3.84825e-39)
(5.48836e-05 -1.67431e-05 -2.03311e-22 2.09153e-05 -2.97189e-23 1.86021e-39)
(3.88054e-06 1.49122e-05 2.20007e-23 5.94305e-05 5.33548e-23 3.95506e-39)
(5.22839e-06 1.87738e-05 -2.92309e-23 6.97888e-05 -7.06704e-23 5.04926e-39)
(6.89682e-06 2.29999e-05 -3.53377e-23 7.94307e-05 -8.11791e-23 4.91377e-39)
(8.79606e-06 2.7379e-05 4.19582e-23 8.83768e-05 9.10198e-23 5.04757e-39)
(1.09244e-05 3.18159e-05 -4.63186e-23 9.63065e-05 -9.53265e-23 4.25568e-39)
(1.33016e-05 3.62326e-05 5.68893e-23 0.000102886 1.10065e-22 4.9203e-39)
(1.59441e-05 4.05404e-05 1.86354e-24 0.000107831 3.36278e-24 4.01006e-42)
(1.88573e-05 4.46445e-05 0 0.00011095 0 0)
(2.21224e-05 4.85921e-05 -3.88136e-23 0.000112366 -6.30668e-23 9.31476e-40)
(2.56625e-05 5.21192e-05 -2.67466e-24 0.00011164 -4.56823e-24 8.94919e-43)
(2.9517e-05 5.51807e-05 -2.90674e-24 0.000108823 -4.71141e-24 7.54436e-43)
(3.35961e-05 5.7676e-05 5.38105e-23 0.000104226 7.35178e-23 8.90331e-40)
(3.78101e-05 5.95106e-05 2.63477e-23 9.81223e-05 3.45537e-23 1.56023e-40)
(4.20318e-05 6.05879e-05 -4.51095e-23 9.08378e-05 -5.63484e-23 3.90627e-40)
(4.61035e-05 6.08148e-05 8.12545e-22 8.27261e-05 9.78723e-22 9.77861e-38)
(4.98641e-05 6.01156e-05 -8.18037e-22 7.41403e-05 -9.45454e-22 9.03257e-38)
(5.31749e-05 5.84428e-05 -5.10745e-23 6.54124e-05 -5.70778e-23 2.79579e-40)
(5.59435e-05 5.5787e-05 3.92107e-23 5.68431e-05 4.22293e-23 1.50041e-40)
(5.81375e-05 5.21828e-05 6.97988e-23 4.86973e-05 7.22082e-23 3.81273e-40)
(5.9786e-05 4.77097e-05 3.71824e-24 4.12029e-05 3.49337e-24 5.35455e-43)
(6.09676e-05 4.24856e-05 3.58945e-24 3.45471e-05 3.13493e-24 4.99316e-43)
(6.17895e-05 3.66559e-05 -6.88859e-23 2.88715e-05 -6.07408e-23 2.95625e-40)
(6.23647e-05 3.03805e-05 0 2.42685e-05 0 0)
(6.27945e-05 2.38233e-05 -4.17153e-24 2.07787e-05 -3.05849e-24 8.89341e-43)
(6.31582e-05 1.71418e-05 1.18964e-22 1.83888e-05 7.83371e-23 6.57308e-40)
(6.35068e-05 1.04788e-05 -1.25297e-22 1.70332e-05 -7.20383e-23 7.31132e-40)
(6.38811e-05 3.96417e-06 1.19661e-22 1.66047e-05 5.78542e-23 5.97802e-40)
(6.43411e-05 -2.2751e-06 -1.10908e-22 1.69609e-05 -4.34151e-23 5.12424e-40)
(6.48635e-05 -8.14087e-06 -1.07527e-22 1.79307e-05 -3.14826e-23 4.3104e-40)
(6.35897e-05 -1.43598e-05 1.20767e-22 1.96022e-05 2.28266e-23 5.54781e-40)
(4.86105e-06 1.71795e-05 0 6.26358e-05 0 0)
(6.43253e-06 2.117e-05 -2.8803e-23 7.18992e-05 -6.49473e-23 4.13599e-39)
(8.34022e-06 2.54732e-05 4.17318e-23 8.04422e-05 8.80674e-23 6.1459e-39)
(1.05304e-05 2.99313e-05 -4.6856e-23 8.82109e-05 -9.28391e-23 5.28352e-39)
(1.30204e-05 3.44634e-05 5.16596e-23 9.49201e-05 9.53407e-23 4.80736e-39)
(1.58442e-05 3.89967e-05 -5.61973e-23 0.000100297 -9.72811e-23 3.96792e-39)
(1.90254e-05 4.34422e-05 6.43069e-23 0.000104125 1.03272e-22 4.07424e-39)
(2.26082e-05 4.77485e-05 4.82735e-24 0.000106316 7.2384e-24 1.70395e-41)
(2.66336e-05 5.18901e-05 2.72566e-24 0.000106948 3.83754e-24 4.09201e-42)
(3.10641e-05 5.56372e-05 3.05009e-24 0.000105644 4.04243e-24 3.89791e-42)
(3.59087e-05 5.89548e-05 3.4214e-24 0.000102628 4.30129e-24 3.69286e-42)
(4.10583e-05 6.17287e-05 -1.87145e-24 9.81553e-05 -2.23136e-24 8.62799e-43)
(4.63926e-05 6.3861e-05 3.42181e-23 9.24845e-05 3.90299e-23 2.21012e-40)
(5.17377e-05 6.52458e-05 -1.72981e-23 8.59027e-05 -1.86629e-23 5.37225e-41)
(5.68851e-05 6.57794e-05 1.00369e-21 7.87003e-05 1.05946e-21 1.23127e-37)
(6.16227e-05 6.53725e-05 -1.09055e-21 7.11496e-05 -1.10893e-21 1.32244e-37)
(6.57671e-05 6.39613e-05 -1.95864e-23 6.34948e-05 -1.94225e-23 2.96577e-41)
(6.91938e-05 6.15191e-05 3.53536e-23 5.59506e-05 3.38728e-23 1.01318e-40)
(7.18539e-05 5.80646e-05 -2.54877e-24 4.87068e-05 -2.36212e-24 4.34325e-43)
(7.3776e-05 5.36646e-05 -1.0201e-23 4.19337e-05 -9.10228e-24 6.16994e-42)
(7.50525e-05 4.84304e-05 -5.08042e-24 3.57833e-05 -4.32832e-24 1.37575e-42)
(7.58147e-05 4.25071e-05 -5.01627e-24 3.03859e-05 -4.04289e-24 1.2234e-42)
(7.62061e-05 3.60604e-05 -9.85049e-24 2.58428e-05 -7.41888e-24 4.35364e-42)
(7.63603e-05 2.92639e-05 1.61767e-22 2.22203e-05 1.12318e-22 1.0641e-39)
(7.63857e-05 2.22862e-05 -1.5951e-22 1.95421e-05 -1.00682e-22 1.03461e-39)
(7.63568e-05 1.52821e-05 1.43905e-22 1.77864e-05 8.01984e-23 7.49851e-40)
(7.63365e-05 8.39392e-06 -1.3286e-22 1.68929e-05 -6.41691e-23 6.431e-40)
(7.64089e-05 1.76752e-06 1.18287e-22 1.6764e-05 4.76213e-23 4.58434e-40)
(7.65656e-05 -4.48197e-06 -1.41405e-22 1.72664e-05 -4.57446e-23 6.56195e-40)
(7.45278e-05 -1.13139e-05 0 1.84567e-05 0 0)
(6.16682e-06 1.97505e-05 0 6.50251e-05 0 0)
(8.04901e-06 2.38929e-05 -2.14325e-24 7.30692e-05 -4.36372e-24 2.02365e-41)
(1.02767e-05 2.82818e-05 3.65302e-23 8.045e-05 6.94069e-23 3.89245e-39)
(1.28502e-05 3.28199e-05 -2.58887e-28 8.69956e-05 2.61548e-25 2.06601e-42)
(1.58075e-05 3.74383e-05 -5.80524e-23 9.24647e-05 -9.43635e-23 5.21961e-39)
(1.9196e-05 4.20673e-05 -4.24866e-24 9.66451e-05 -6.43492e-24 1.97122e-41)
(2.30463e-05 4.66168e-05 -4.77827e-24 9.93843e-05 -6.64192e-24 1.91797e-41)
(2.74542e-05 5.10956e-05 3.83992e-23 0.00010072 5.00992e-23 8.81273e-40)
(3.23935e-05 5.53661e-05 -5.29022e-23 0.000100601 -6.41879e-23 1.331e-39)
(3.78854e-05 5.92853e-05 -4.82326e-26 9.88389e-05 -8.05254e-26 9.59307e-47)
(4.38898e-05 6.27992e-05 3.08919e-23 9.57087e-05 3.35621e-23 2.48319e-40)
(5.02841e-05 6.5803e-05 -3.38565e-23 9.14402e-05 -3.46456e-23 2.51309e-40)
(5.69069e-05 6.81975e-05 1.6062e-23 8.62737e-05 1.59162e-23 4.07453e-41)
(6.35323e-05 6.98734e-05 -1.96951e-23 8.04544e-05 -1.86532e-23 5.38935e-41)
(6.98956e-05 7.07207e-05 1.27967e-21 7.42113e-05 1.18459e-21 1.68089e-37)
(7.57294e-05 7.06381e-05 -1.34192e-21 6.77417e-05 -1.20322e-21 1.68091e-37)
(8.08038e-05 6.95446e-05 -2.26114e-23 6.12078e-05 -1.98607e-23 3.63172e-41)
(8.49606e-05 6.73926e-05 2.61159e-23 5.47444e-05 2.23584e-23 4.54218e-41)
(8.81355e-05 6.41795e-05 -4.39147e-23 4.84701e-05 -3.6603e-23 1.01729e-40)
(9.03586e-05 5.99534e-05 5.90356e-23 4.24987e-05 4.78079e-23 1.77422e-40)
(9.17387e-05 5.48119e-05 -3.59399e-26 3.69442e-05 -1.91619e-26 5.15343e-47)
(9.24344e-05 4.88937e-05 -9.22436e-23 3.19194e-05 -6.84959e-23 3.28917e-40)
(9.26231e-05 4.23649e-05 1.02655e-22 2.75283e-05 7.23862e-23 4.05303e-40)
(9.2473e-05 3.54049e-05 1.11739e-23 2.38558e-05 7.30545e-24 4.29744e-42)
(9.21251e-05 2.8192e-05 1.07489e-23 2.09567e-05 6.49754e-24 3.77683e-42)
(9.16807e-05 2.08912e-05 -1.6698e-22 1.8849e-05 -9.05305e-23 8.35259e-40)
(9.12276e-05 1.36592e-05 2.24055e-24 1.75151e-05 1.33533e-24 2.38664e-42)
(9.0877e-05 6.65941e-06 1.78357e-22 1.69034e-05 7.37495e-23 9.11574e-40)
(9.06339e-05 2.58854e-08 0 1.69203e-05 0 0)
(8.78145e-05 -7.4434e-06 0 1.75634e-05 0 0)
(7.91156e-06 2.26314e-05 0 6.64244e-05 0 0)
(1.02057e-05 2.69231e-05 4.18082e-23 7.31573e-05 7.58968e-23 6.24429e-39)
(1.28461e-05 3.13841e-05 4.98957e-26 7.93334e-05 3.1102e-25 1.91052e-42)
(1.59075e-05 3.59796e-05 -2.47791e-26 8.4638e-05 2.31112e-25 2.29603e-42)
(1.94515e-05 4.0652e-05 -1.2681e-22 8.88753e-05 -1.78252e-22 2.08662e-38)
(2.35372e-05 4.5333e-05 7.59172e-23 9.18973e-05 9.79009e-23 5.60254e-39)
(2.82084e-05 4.99411e-05 5.48111e-24 9.36187e-05 6.56988e-24 2.09515e-41)
(3.35849e-05 5.45108e-05 0 9.41639e-05 0 0)
(3.96127e-05 5.88424e-05 -5.27292e-23 9.33777e-05 -5.50587e-23 1.06458e-39)
(4.63373e-05 6.28635e-05 5.89221e-23 9.12761e-05 5.71784e-23 1.08944e-39)
(5.36752e-05 6.65092e-05 -3.49288e-23 8.81288e-05 -3.25322e-23 2.72327e-40)
(6.1484e-05 6.96902e-05 -8.12463e-26 8.41498e-05 -4.65879e-25 5.43621e-43)
(6.95542e-05 7.23121e-05 4.15373e-23 7.95562e-05 3.52775e-23 2.56754e-40)
(7.76024e-05 7.42683e-05 -1.3909e-24 7.45518e-05 -1.15266e-24 2.21052e-43)
(8.53037e-05 7.54456e-05 1.56841e-21 6.93071e-05 1.27569e-21 2.14816e-37)
(9.23327e-05 7.57315e-05 -1.6448e-21 6.39504e-05 -1.30463e-21 2.15014e-37)
(9.84112e-05 7.50258e-05 1.6117e-24 5.85704e-05 1.26014e-24 1.63908e-43)
(0.000103349 7.32562e-05 5.28517e-23 5.32289e-05 4.06442e-23 1.42841e-40)
(0.000107067 7.0393e-05 -1.47973e-25 4.79784e-05 -1.69881e-25 5.52544e-43)
(0.000109601 6.64592e-05 -6.75617e-23 4.2878e-05 -4.98751e-23 1.94842e-40)
(0.000111079 6.15327e-05 1.13945e-22 3.80024e-05 8.14524e-23 4.59937e-40)
(0.00011169 5.57392e-05 -1.06782e-22 3.34425e-05 -7.38654e-23 3.98938e-40)
(0.000111648 4.92404e-05 0 2.92983e-05 0 0)
(0.00011116 4.22176e-05 -1.27167e-23 2.56663e-05 -7.91677e-24 4.69468e-42)
(0.000110402 3.48559e-05 1.98278e-22 2.26258e-05 1.14258e-22 1.03446e-39)
(0.000109504 2.73299e-05 -3.99221e-22 2.02288e-05 -2.11279e-22 4.10234e-39)
(0.000108582 1.98102e-05 2.35312e-24 1.84971e-05 1.45096e-24 2.62745e-42)
(0.000107774 1.2478e-05 -9.16245e-24 1.74226e-05 -3.56262e-24 1.53375e-42)
(0.000107099 5.48434e-06 1.76694e-22 1.69533e-05 6.39036e-23 7.15066e-40)
(0.000103502 -2.61074e-06 0 1.70066e-05 0 0)
(1.02323e-05 2.57907e-05 4.6289e-24 6.66802e-05 7.85142e-24 9.91652e-41)
(1.3053e-05 3.0198e-05 0 7.20487e-05 0 0)
(1.62104e-05 3.4694e-05 3.37719e-24 7.70035e-05 4.84302e-24 2.38694e-41)
(1.98766e-05 3.93006e-05 -5.90892e-23 8.10795e-05 -7.70856e-23 5.25022e-39)
(2.41374e-05 4.39691e-05 7.35779e-23 8.41273e-05 8.71309e-23 6.1822e-39)
(2.90614e-05 4.8633e-05 -8.54191e-23 8.60619e-05 -9.34005e-23 5.8362e-39)
(3.47175e-05 5.32356e-05 9.76981e-23 8.68714e-05 9.75667e-23 5.99763e-39)
(4.12125e-05 5.7793e-05 5.57728e-23 8.66934e-05 5.2316e-23 1.38266e-39)
(4.85059e-05 6.21042e-05 -1.34054e-22 8.53606e-05 -1.17329e-22 6.1976e-39)
(5.66308e-05 6.61473e-05 -4.61154e-24 8.30467e-05 -4.58242e-24 1.37212e-42)
(6.54706e-05 6.98573e-05 7.3298e-23 7.99857e-05 5.74052e-23 1.13519e-39)
(7.4852e-05 7.31642e-05 -4.30691e-23 7.63797e-05 -3.29492e-23 2.7935e-40)
(8.45113e-05 7.59855e-05 2.32021e-23 7.24209e-05 1.68321e-23 7.68161e-41)
(9.41039e-05 7.82218e-05 3.91841e-23 6.82722e-05 2.83191e-23 1.53898e-40)
(0.000103241 7.97589e-05 1.8728e-21 6.40506e-05 1.34137e-21 2.64623e-37)
(0.000111537 8.04724e-05 -1.9885e-21 5.98229e-05 -1.40011e-21 2.71977e-37)
(0.000118666 8.02403e-05 4.1851e-23 5.56129e-05 2.9303e-23 9.34471e-41)
(0.000124409 7.89609e-05 2.99361e-23 5.1418e-05 2.07773e-23 3.51709e-41)
(0.000128676 7.65718e-05 -6.08384e-23 4.72308e-05 -4.17784e-23 1.54904e-40)
(0.000131508 7.30646e-05 1.37667e-22 4.30584e-05 9.29076e-23 6.34975e-40)
(0.000133059 6.8491e-05 7.23329e-24 3.89355e-05 4.41452e-24 8.62635e-43)
(0.000133553 6.2959e-05 -2.27109e-22 3.49277e-05 -1.46107e-22 1.4661e-39)
(0.000133242 5.66204e-05 1.19612e-22 3.11248e-05 7.43244e-23 3.89054e-40)
(0.000132375 4.96549e-05 2.32589e-22 2.76281e-05 1.3694e-22 1.27239e-39)
(0.000131164 4.2252e-05 -2.28602e-22 2.4535e-05 -1.27457e-22 1.23738e-39)
(0.000129773 3.45947e-05 2.19846e-22 2.19247e-05 1.13322e-22 1.01736e-39)
(0.000128345 2.68664e-05 -2.28934e-22 1.98546e-05 -1.08366e-22 1.10982e-39)
(0.000127049 1.92662e-05 1.30585e-23 1.83556e-05 5.51647e-24 3.30897e-42)
(0.000125914 1.19598e-05 0 1.74163e-05 0 0)
(0.000121565 3.28795e-06 -2.55918e-23 1.68633e-05 -7.71173e-24 1.1501e-41)
(1.32904e-05 2.91518e-05 -5.3946e-24 6.56709e-05 -7.96992e-24 1.07245e-40)
(1.6764e-05 3.36081e-05 5.3693e-23 6.96659e-05 7.09688e-23 7.36256e-39)
(2.05523e-05 3.8077e-05 -6.02736e-23 7.34166e-05 -7.1725e-23 6.76931e-39)
(2.49488e-05 4.26231e-05 -4.47415e-24 7.6311e-05 -4.87825e-24 2.59079e-41)