/*--------------------------------*- C++ -*----------------------------------*\
  =========                 |
  \\      /  F ield         | OpenFOAM: The Open Source CFD Toolbox
   \\    /   O peration     | Website:  https://openfoam.org
    \\  /    A nd           | Version:  12
     \\/     M anipulation  |
\*---------------------------------------------------------------------------*/
FoamFile
{
    format      ascii;
    class       volScalarField;
    location    "300";
    object      p;
}
// * * * * * * * * * * * * * * * * * * * * * * * * * * * * * * * * * * * * * //

dimensions      [0 2 -2 0 0 0 0];

internalField   nonuniform List<scalar> 
6750
(
0.021626
0.021604
0.0215746
0.0214111
0.0203826
0.0231444
0.0231079
0.0229806
0.0227147
0.0223553
0.0249373
0.0248781
0.0247475
0.0245494
0.0243964
0.0268179
0.026724
0.0265997
0.0264593
0.0263825
0.028685
0.0285471
0.028413
0.0283005
0.0282618
0.0304589
0.0302725
0.0301177
0.030015
0.0299936
0.0320911
0.0318549
0.0316754
0.0315756
0.0315627
0.0335523
0.0332671
0.0330629
0.0329639
0.0329562
0.0348241
0.0344923
0.0342654
0.0341672
0.0341631
0.0358961
0.0355218
0.0352753
0.0351784
0.035177
0.0367649
0.0363534
0.0360913
0.0359963
0.0359968
0.0374337
0.0369914
0.0367181
0.0366254
0.0366269
0.037912
0.0374449
0.0371654
0.0370752
0.037077
0.0382137
0.0377278
0.0374485
0.0373594
0.0373605
0.0383521
0.0378604
0.0375865
0.0374949
0.0374939
0.0383521
0.0378605
0.0375865
0.037495
0.0374939
0.0382139
0.0377279
0.0374486
0.0373595
0.0373606
0.0379121
0.0374451
0.0371656
0.0370753
0.0370772
0.037434
0.0369916
0.0367183
0.0366257
0.0366272
0.0367652
0.0363537
0.0360917
0.0359967
0.0359971
0.0358965
0.0355222
0.0352757
0.0351788
0.0351774
0.0348246
0.0344929
0.0342659
0.0341677
0.0341636
0.0335529
0.0332677
0.0330635
0.0329645
0.0329568
0.0320918
0.0318556
0.0316761
0.0315763
0.0315634
0.0304597
0.0302733
0.0301184
0.0300158
0.0299944
0.0286859
0.028548
0.0284139
0.0283014
0.0282627
0.0268189
0.0267249
0.0266007
0.0264603
0.0263835
0.0249383
0.0248792
0.0247486
0.0245505
0.0243975
0.0231456
0.0231091
0.0229817
0.0227159
0.0223565
0.0216273
0.0216053
0.0215759
0.0214124
0.0203839
0.0142037
0.0147964
0.0162646
0.0173496
0.018136
0.018761
0.0192507
0.0196166
0.0198866
0.020071
0.020133
0.0201467
0.0200841
0.0199413
0.019717
0.0194075
0.0190099
0.0185271
0.0179623
0.0173155
0.0165813
0.0158643
0.0151093
0.0143315
0.0135511
0.0127807
0.0120301
0.0113138
0.0106419
0.00995915
0.0181134
0.0189091
0.0197088
0.0201096
0.0203385
0.0204798
0.0205356
0.0205152
0.0204472
0.020329
0.0201193
0.0199322
0.0197268
0.019506
0.0192683
0.0190047
0.0187027
0.0183513
0.0179398
0.0174653
0.0169458
0.0163124
0.0156478
0.0149431
0.0142062
0.0134486
0.0126784
0.01191
0.0111836
0.0104791
0.020594
0.0207776
0.0210925
0.0212464
0.0213221
0.0213302
0.0212589
0.0211186
0.0209309
0.02066
0.0203104
0.0199752
0.019612
0.0192318
0.0188406
0.0184383
0.0180214
0.0175849
0.0171231
0.0166311
0.0161079
0.015553
0.0149726
0.0143663
0.0137389
0.0130962
0.0124394
0.0117791
0.0112025
0.0107855
0.0220368
0.0218127
0.0219415
0.0220243
0.0220334
0.021966
0.0218171
0.0216036
0.0213343
0.0209401
0.0204939
0.0200345
0.0195329
0.0190059
0.0184653
0.0179187
0.0173718
0.0168274
0.0162864
0.0157474
0.0152088
0.0146744
0.0141409
0.0136052
0.0130673
0.0125273
0.0119782
0.0114226
0.0109896
0.0109075
0.0231274
0.0227553
0.0228018
0.0228139
0.0227396
0.0225848
0.0223499
0.0220504
0.0216841
0.0211742
0.0206319
0.0200523
0.0194253
0.0187708
0.0181043
0.017439
0.0167859
0.0161534
0.0155465
0.014967
0.0144144
0.0138876
0.0133835
0.0128972
0.012425
0.011963
0.0114976
0.011022
0.0106974
0.0109196
0.0240745
0.0236633
0.0236451
0.023577
0.0234167
0.0231754
0.0228542
0.0224651
0.0219915
0.0213764
0.0207341
0.0200387
0.0192948
0.0185244
0.0177458
0.0169762
0.0162309
0.0155217
0.0148563
0.0142384
0.0136681
0.0131428
0.0126578
0.012207
0.0117843
0.0113833
0.0109851
0.0105756
0.0103414
0.0108363
0.0249124
0.0245074
0.024431
0.0242862
0.0240471
0.0237249
0.023322
0.0228464
0.0222602
0.0215513
0.0208089
0.0200037
0.0191499
0.0182712
0.0173888
0.0165232
0.0156926
0.0149115
0.0141899
0.0135327
0.0129404
0.0124099
0.0119355
0.0115096
0.0111246
0.0107719
0.0104286
0.0100753
0.00992115
0.0106577
0.0256616
0.0252927
0.0251658
0.0249494
0.0246361
0.0242362
0.0237552
0.0231952
0.0224959
0.0217033
0.0208608
0.0199505
0.0189928
0.0180122
0.0170326
0.016077
0.0151663
0.014317
0.0135406
0.0128432
0.0122257
0.0116846
0.0112136
0.0108039
0.0104466
0.0101317
0.00983237
0.00952595
0.00944286
0.0103874
0.0263441
0.0260327
0.0258617
0.0255764
0.0251911
0.0247162
0.0241597
0.0235107
0.0227072
0.0218335
0.020892
0.0198809
0.0188239
0.0177467
0.0166752
0.0156347
0.014648
0.0137333
0.0129036
0.0121654
0.0115202
0.0109644
0.0104908
0.0100899
0.00975219
0.0094659
0.00920101
0.00893331
0.0089132
0.0100314
0.0269768
0.0267375
0.0265268
0.0261742
0.0257186
0.0251723
0.0245398
0.0237938
0.0229005
0.0219423
0.0209043
0.0197963
0.0186439
0.0174741
0.0163146
0.0151929
0.0141332
0.0131553
0.0122729
0.0114935
0.0108185
0.0102443
0.00976323
0.00936532
0.00904012
0.00877475
0.0085362
0.00830018
0.00833628
0.00959561
0.0275721
0.027415
0.0271683
0.0267486
0.0262233
0.0256074
0.0248984
0.0240516
0.0230788
0.0220331
0.0209005
0.0196982
0.0184531
0.0171935
0.0159489
0.0147484
0.0136177
0.0125777
0.0116429
0.0108213
0.0101145
0.00951873
0.00902608
0.00862601
0.00830752
0.00805657
0.00783746
0.00762713
0.00771378
0.00908528
0.0281401
0.0280724
0.0277926
0.0273055
0.0267103
0.026027
0.0252381
0.0242919
0.0232441
0.0221088
0.0208828
0.0195879
0.0182517
0.016904
0.015576
0.0142981
0.0130973
0.0119955
0.0110079
0.0101428
0.00940206
0.00878183
0.00827384
0.00786718
0.00755037
0.00730821
0.00710263
0.0069129
0.00704525
0.00850402
0.0286908
0.028717
0.0284068
0.0278526
0.0271888
0.0264339
0.0255577
0.0245243
0.023398
0.0221717
0.020853
0.0194661
0.0180395
0.0166044
0.0151935
0.0138386
0.0125677
0.0114035
0.010362
0.00945182
0.00867487
0.00802722
0.00750039
0.00708311
0.00676349
0.00652517
0.00632793
0.00615436
0.00632823
0.00785366
0.0292336
0.0293555
0.0290176
0.0283962
0.0276634
0.0268351
0.0258648
0.0247531
0.0235426
0.0222243
0.0208128
0.0193336
0.0178163
0.0162934
0.0147992
0.0133665
0.0120245
0.0107967
0.00969946
0.00874193
0.0079261
0.00724797
0.0066988
0.00626706
0.00594046
0.00570147
0.0055079
0.00534655
0.00555825
0.00713391
0.029776
0.0299972
0.0296332
0.0289438
0.0281416
0.0272348
0.0261686
0.0249811
0.0236816
0.0222695
0.0207638
0.0191909
0.0175813
0.0159692
0.0143901
0.0128779
0.0114628
0.0101691
0.00901378
0.00800612
0.00714833
0.00643632
0.00586119
0.00541115
0.00507354
0.00482958
0.00463532
0.00448254
0.0047288
0.00634208
0.0303252
0.0306535
0.0302661
0.0295083
0.0286293
0.0276333
0.0264806
0.0252112
0.0238183
0.0223098
0.0207073
0.019038
0.0173336
0.0156297
0.0139629
0.0123685
0.0108774
0.00951471
0.00829788
0.00723661
0.00633321
0.00558354
0.00497853
0.00450618
0.00415345
0.00390026
0.00370107
0.00355333
0.00383114
0.00547279
0.0308915
0.0313368
0.0309274
0.0300979
0.0291359
0.028041
0.0268072
0.0254473
0.0239562
0.0223477
0.0206446
0.0188749
0.0170718
0.0152721
0.0135138
0.0118331
0.010262
0.00882618
0.00754369
0.00642456
0.00547122
0.00467954
0.00404029
0.00354128
0.00316908
0.00290226
0.0026938
0.00254751
0.00285403
0.00451762
0.0314915
0.0320606
0.031631
0.0307203
0.0296653
0.0284732
0.0271534
0.0256945
0.0240996
0.0223858
0.0205765
0.018701
0.0167938
0.0148931
0.0130379
0.0112657
0.00960929
0.00809512
0.00674177
0.00555961
0.00455124
0.00371249
0.00303403
0.0025035
0.00210708
0.00182188
0.00159954
0.00145088
0.0017833
0.00346463
0.032149
0.032835
0.0323875
0.0313899
0.0302273
0.0289415
0.0275239
0.025958
0.0242525
0.0224263
0.0205036
0.0185151
0.0164968
0.014488
0.0125291
0.0106587
0.00891036
0.00731137
0.00588082
0.00462942
0.00355993
0.00266821
0.00194481
0.00137722
0.000951192
0.000642326
0.000401029
0.000245712
0.000601084
0.00229767
0.0328829
0.0336792
0.0332146
0.0321193
0.0308398
0.0294548
0.0279276
0.0262452
0.0244198
0.0224716
0.0204261
0.0183153
0.0161766
0.0140508
0.0119796
0.0100025
0.00815409
0.00646236
0.00494691
0.00361882
0.00248101
0.00152936
0.00075431
0.00014323
-0.000318599
-0.000657186
-0.000923252
-0.00109016
-0.000715136
0.000995299
0.0337188
0.0346266
0.0341337
0.0329206
0.0315256
0.0300263
0.0283756
0.0265643
0.0246066
0.0225239
0.0203432
0.0180981
0.0158274
0.0135734
0.011379
0.00928475
0.00732626
0.00553212
0.0039225
0.0025088
0.0012941
0.000274265
-0.000560343
-0.00122249
-0.0017274
-0.00210279
-0.00240042
-0.0025848
-0.0021941
-0.000470735
0.0346976
0.0356987
0.0351648
0.0338288
0.0323063
0.0306721
0.0288809
0.0269244
0.024818
0.0225847
0.020253
0.0178582
0.0154408
0.0130444
0.0107133
0.00848904
0.00640816
0.0044999
0.0027849
0.00127486
-2.6999e-05
-0.00112484
-0.00202842
-0.00275064
-0.0033073
-0.00372792
-0.00406522
-0.00427428
-0.003873
-0.00213789
0.0358659
0.0369407
0.0363487
0.0348811
0.0332057
0.0314129
0.0294593
0.0273361
0.0250595
0.0226544
0.0201513
0.0175872
0.0150043
0.0124478
0.00996309
0.00759291
0.00537457
0.0033379
0.00150394
-0.000115373
-0.00151676
-0.00270443
-0.00368829
-0.00448143
-0.00510029
-0.0055763
-0.00596312
-0.00620585
-0.00580087
-0.00405647
0.0372916
0.0384128
0.0377456
0.0361185
0.0342572
0.0322757
0.0301305
0.0278114
0.0253361
0.0227315
0.0200303
0.0172716
0.0144993
0.0117601
0.00910078
0.0065649
0.00419051
0.00200789
3.8364e-05
-0.00170601
-0.00322196
-0.00451385
-0.00559176
-0.00646902
-0.00716283
-0.00770665
-0.00815504
-0.00844282
-0.00804387
-0.00629546
0.0390875
0.0402091
0.0394275
0.037596
0.0355069
0.0332961
0.030919
0.0283645
0.025652
0.022811
0.0198766
0.0168901
0.0138974
0.0109467
0.00808591
0.00535945
0.0028058
0.00045546
-0.00167018
-0.00355912
-0.00520823
-0.00662209
-0.00781104
-0.00878874
-0.00957324
-0.0102002
-0.0107251
-0.0110725
-0.0106939
-0.00895238
0.0413808
0.0424531
0.0414941
0.0393969
0.0370213
0.0345233
0.0318577
0.0290125
0.0260096
0.0228815
0.0196663
0.0164077
0.0131536
0.00995382
0.00685707
0.00390823
0.00114582
-0.00139982
-0.00370757
-0.00576571
-0.00757142
-0.0091296
-0.0104509
-0.0115494
-0.0124441
-0.0131729
-0.0137923
-0.014218
-0.0138812
-0.0121677
0.0444273
0.0453387
0.0441015
0.0416487
0.0388998
0.036029
0.0329912
0.029775
0.0264053
0.0229186
0.0193564
0.0157651
0.0121946
0.0086958
0.00531781
0.00210513
-0.000904435
-0.00368144
-0.00620558
-0.0084658
-0.0104597
-0.0121925
-0.0136751
-0.0149219
-0.0159528
-0.0168076
-0.0175437
-0.0180709
-0.0178093
-0.0161647
0.0486095
0.0491485
0.0474573
0.0445118
0.0412637
0.0378965
0.0343664
0.0306647
0.0268206
0.0228755
0.018875
0.0148686
0.0109082
0.00704495
0.00332726
-0.000201998
-0.00350714
-0.00656085
-0.00934461
-0.0118486
-0.0140716
-0.0160193
-0.0177025
-0.0191358
-0.0203397
-0.0213546
-0.022238
-0.0228998
-0.0227718
-0.0212815
0.0547996
0.0545916
0.0521554
0.0485091
0.0445555
0.0404669
0.0362121
0.0317964
0.0272604
0.0226553
0.0180339
0.0134502
0.00895732
0.00460551
0.000439966
-0.00350066
-0.00718528
-0.0105907
-0.013701
-0.0165069
-0.0190104
-0.0212302
-0.0231622
-0.0248209
-0.0262274
-0.0274199
-0.0284514
-0.0292475
-0.0293162
-0.0281468
0.0656071
0.0637123
0.0597214
0.0548446
0.0497271
0.044465
0.0390551
0.0335326
0.0279557
0.0223845
0.0168766
0.011485
0.0062575
0.00123548
-0.0035467
-0.00806167
-0.0122886
-0.0162129
-0.0198261
-0.0231261
-0.0261088
-0.0287622
-0.0311119
-0.0331664
-0.0349366
-0.0364483
-0.0377465
-0.0388207
-0.0393751
-0.0388553
0.0178702
0.0188077
0.0205552
0.0219366
0.02309
0.024162
0.0251863
0.0261719
0.0271286
0.028066
0.0289923
0.0299153
0.030843
0.0317842
0.0327471
0.0337421
0.0347821
0.0358834
0.0370648
0.0383478
0.03976
0.0413409
0.0431379
0.0452171
0.0476672
0.0506235
0.0542714
0.0588236
0.0645075
0.0718446
0.02219
0.0231652
0.0242894
0.0252245
0.0260574
0.02685
0.027614
0.0283534
0.0290757
0.0297889
0.0305009
0.0312197
0.0319537
0.0327117
0.0335035
0.0343406
0.0352369
0.0362093
0.0372782
0.0384682
0.0398117
0.0413518
0.0431453
0.0452701
0.0478361
0.0510058
0.0550137
0.0601819
0.0669977
0.0760494
0.0244972
0.0253655
0.0262074
0.0269578
0.0276851
0.0284058
0.0291169
0.0298193
0.0305178
0.0312182
0.0319267
0.0326499
0.033395
0.0341704
0.0349854
0.0358516
0.0367829
0.0377966
0.0389141
0.0401623
0.0415765
0.0432036
0.0451066
0.0473729
0.0501262
0.053546
0.0578985
0.0635623
0.0711885
0.0814686
0.0265089
0.0272684
0.0279952
0.0286661
0.0293297
0.0299958
0.0306636
0.0313359
0.0320175
0.032714
0.0334309
0.0341747
0.0349522
0.0357716
0.0366424
0.0375764
0.0385879
0.0396946
0.0409189
0.0422894
0.0438435
0.0456311
0.0477193
0.0502014
0.0532087
0.0569306
0.0616478
0.0677559
0.0759967
0.087108
0.028386
0.0290529
0.0296904
0.0302904
0.0308942
0.0315118
0.0321439
0.0327931
0.0334638
0.0341606
0.0348887
0.0356541
0.0364637
0.0373255
0.0382496
0.0392479
0.0403354
0.0415307
0.0428574
0.0443456
0.0460351
0.0479783
0.0502461
0.0529361
0.0561855
0.0601914
0.0652443
0.0717507
0.0805363
0.0923963
0.0301
0.030685
0.0312467
0.0317874
0.0323442
0.0329259
0.0335331
0.034168
0.0348343
0.0355361
0.0362783
0.0370666
0.0379078
0.03881
0.0397833
0.0408402
0.041996
0.0432701
0.0446871
0.0462787
0.0480862
0.0501646
0.0525877
0.0554569
0.0589144
0.0631636
0.0685048
0.0753576
0.084629
0.0971969
0.0316479
0.0321599
0.0326575
0.0331498
0.0336699
0.0342248
0.0348147
0.0354414
0.036108
0.0368184
0.037577
0.0383893
0.039262
0.0402032
0.0412232
0.0423345
0.0435531
0.0448987
0.046397
0.0480807
0.0499925
0.0521893
0.0547473
0.0577708
0.0614062
0.0658624
0.0714486
0.0785977
0.0882834
0.101479
0.0330251
0.0334714
0.0339142
0.0343671
0.0348583
0.0353931
0.0359712
0.0365939
0.0372641
0.0379849
0.0387607
0.0395967
0.0404994
0.0414771
0.04254
0.0437008
0.0449759
0.0463856
0.047956
0.0497209
0.0517242
0.0540241
0.0566986
0.0598547
0.0636417
0.0682734
0.0740664
0.081466
0.0914911
0.105219
0.0342233
0.0346107
0.0350069
0.0354279
0.0358968
0.0364168
0.0369871
0.0376088
0.0382841
0.0390161
0.0398085
0.0406665
0.0415966
0.0426069
0.0437077
0.0449121
0.0462365
0.0477017
0.0493343
0.0511689
0.0532502
0.0556376
0.0584106
0.0616781
0.065592
0.0703696
0.0763343
0.0839415
0.0942349
0.108401
0.0352353
0.035571
0.0359285
0.0363246
0.0367765
0.0372857
0.0378512
0.0384736
0.0391547
0.0398972
0.0407048
0.0415824
0.0425363
0.0435746
0.0447079
0.0459491
0.047315
0.0488266
0.0505112
0.0524037
0.0545495
0.0570089
0.0598627
0.0632212
0.0672383
0.0721343
0.0782378
0.0860128
0.0965101
0.111031
0.0360582
0.0363501
0.0366767
0.0370537
0.037493
0.0379946
0.0385572
0.0391812
0.0398679
0.0406199
0.0414404
0.0423344
0.043308
0.0443695
0.0455293
0.0468005
0.0481999
0.0497491
0.0514754
0.0534141
0.0556114
0.0581281
0.0610459
0.0644762
0.0685746
0.0735634
0.0797755
0.087682
0.098327
0.11313
0.0366943
0.0369508
0.0372539
0.0376169
0.0380472
0.0385436
0.0391047
0.0397304
0.0404221
0.0411817
0.0420127
0.0429197
0.0439088
0.0449883
0.0461686
0.047463
0.0488883
0.0504663
0.0522245
0.0541986
0.056435
0.0589952
0.0619614
0.065446
0.0696056
0.074664
0.0809575
0.0889629
0.0997076
0.114731
0.0371506
0.0373808
0.0376673
0.0380207
0.0384449
0.038938
0.0394983
0.0401256
0.040821
0.0415865
0.0424252
0.0433416
0.0443421
0.0454347
0.0466298
0.0479408
0.0493847
0.0509832
0.0527642
0.0547635
0.0570278
0.0596188
0.0626194
0.0661422
0.070345
0.0754523
0.0818031
0.0898782
0.100683
0.115874
0.037439
0.037652
0.037928
0.0382756
0.0386962
0.0391873
0.0397473
0.0403758
0.0410738
0.0418431
0.0426868
0.0436094
0.0446171
0.045718
0.0469226
0.0482442
0.0497
0.0513116
0.053107
0.0551222
0.0574042
0.0600147
0.0630369
0.0665839
0.0708138
0.0759519
0.0823385
0.0904575
0.10129
0.116602
0.0375745
0.0377792
0.0380502
0.0383951
0.0388141
0.0393043
0.0398643
0.0404935
0.0411927
0.0419639
0.04281
0.0437356
0.0447468
0.0458518
0.0470609
0.0483876
0.049849
0.051467
0.0532693
0.0552922
0.0575825
0.0602024
0.0632349
0.0667935
0.0710363
0.0761889
0.0825927
0.0907323
0.101572
0.116955
0.0375745
0.0377792
0.0380502
0.0383951
0.0388141
0.0393044
0.0398643
0.0404935
0.0411928
0.0419639
0.04281
0.0437356
0.0447469
0.0458518
0.0470609
0.0483877
0.0498491
0.051467
0.0532693
0.0552922
0.0575825
0.0602024
0.063235
0.0667935
0.0710363
0.0761889
0.0825927
0.0907323
0.101572
0.116955
0.0374391
0.0376521
0.0379281
0.0382757
0.0386963
0.0391874
0.0397474
0.0403759
0.0410739
0.0418432
0.0426868
0.0436095
0.0446172
0.0457181
0.0469227
0.0482443
0.0497
0.0513117
0.0531071
0.0551223
0.0574042
0.0600148
0.063037
0.066584
0.0708139
0.075952
0.0823386
0.0904575
0.10129
0.116602
0.0371508
0.037381
0.0376674
0.0380209
0.0384451
0.0389381
0.0394984
0.0401258
0.0408212
0.0415866
0.0424253
0.0433418
0.0443422
0.0454348
0.0466299
0.0479409
0.0493848
0.0509834
0.0527643
0.0547636
0.0570279
0.059619
0.0626195
0.0661423
0.0703451
0.0754524
0.0818032
0.0898783
0.100683
0.115874
0.0366946
0.036951
0.0372542
0.0376171
0.0380474
0.0385438
0.0391049
0.0397306
0.0404223
0.0411819
0.0420129
0.0429198
0.043909
0.0449885
0.0461688
0.0474631
0.0488885
0.0504665
0.0522247
0.0541987
0.0564352
0.0589954
0.0619616
0.0654461
0.0696057
0.0746641
0.0809577
0.0889631
0.0997078
0.114731
0.0360586
0.0363504
0.036677
0.037054
0.0374933
0.0379949
0.0385575
0.0391815
0.0398682
0.0406201
0.0414407
0.0423346
0.0433083
0.0443698
0.0455295
0.0468007
0.0482002
0.0497493
0.0514756
0.0534144
0.0556116
0.0581284
0.0610461
0.0644764
0.0685748
0.0735636
0.0797758
0.0876823
0.0983272
0.11313
0.0352357
0.0355714
0.0359289
0.0363249
0.0367768
0.037286
0.0378515
0.0384739
0.039155
0.0398975
0.0407051
0.0415827
0.0425365
0.0435749
0.0447081
0.0459494
0.0473152
0.0488269
0.0505115
0.0524039
0.0545498
0.0570092
0.059863
0.0632214
0.0672386
0.0721346
0.0782381
0.0860131
0.0965104
0.111031
0.0342238
0.0346112
0.0350073
0.0354284
0.0358973
0.0364172
0.0369875
0.0376092
0.0382845
0.0390164
0.0398089
0.0406669
0.041597
0.0426073
0.0437081
0.0449125
0.0462368
0.047702
0.0493347
0.0511692
0.0532505
0.0556379
0.0584109
0.0616784
0.0655923
0.07037
0.0763347
0.0839419
0.0942352
0.108401
0.0330257
0.033472
0.0339147
0.0343676
0.0348588
0.0353936
0.0359717
0.0365944
0.0372645
0.0379854
0.0387612
0.0395971
0.0404998
0.0414775
0.0425403
0.0437012
0.0449763
0.0463859
0.0479564
0.0497213
0.0517246
0.0540244
0.0566989
0.059855
0.0636421
0.0682737
0.0740668
0.0814664
0.0914915
0.105219
0.0316486
0.0321605
0.0326581
0.0331504
0.0336705
0.0342254
0.0348152
0.0354419
0.0361085
0.0368189
0.0375775
0.0383898
0.0392625
0.0402037
0.0412236
0.042335
0.0435535
0.0448991
0.0463974
0.0480811
0.0499929
0.0521897
0.0547477
0.0577713
0.0614066
0.0658628
0.071449
0.0785982
0.0882839
0.10148
0.0301007
0.0306857
0.0312474
0.0317881
0.0323448
0.0329265
0.0335337
0.0341686
0.0348349
0.0355367
0.0362789
0.0370672
0.0379083
0.0388105
0.0397838
0.0408407
0.0419965
0.0432705
0.0446875
0.0462791
0.0480867
0.0501651
0.0525882
0.0554574
0.0589149
0.0631641
0.0685053
0.0753581
0.0846295
0.0971974
0.0283869
0.0290538
0.0296912
0.0302912
0.030895
0.0315125
0.0321446
0.0327938
0.0334644
0.0341612
0.0348894
0.0356547
0.0364642
0.0373261
0.0382502
0.0392485
0.0403359
0.0415312
0.0428579
0.0443462
0.0460356
0.0479788
0.0502466
0.0529366
0.056186
0.0601919
0.0652448
0.0717512
0.0805368
0.0923969
0.0265099
0.0272693
0.0279961
0.0286669
0.0293305
0.0299966
0.0306644
0.0313366
0.0320182
0.0327147
0.0334316
0.0341753
0.0349528
0.0357722
0.036643
0.037577
0.0385885
0.0396952
0.0409195
0.04229
0.0438441
0.0456316
0.0477199
0.0502019
0.0532092
0.0569311
0.0616484
0.0677564
0.0759973
0.0871086
0.0244983
0.0253665
0.0262084
0.0269587
0.027686
0.0284067
0.0291178
0.0298201
0.0305185
0.031219
0.0319274
0.0326506
0.0333957
0.0341711
0.0349861
0.0358522
0.0367835
0.0377972
0.0389147
0.0401629
0.0415771
0.0432042
0.0451072
0.0473735
0.0501268
0.0535466
0.0578991
0.0635629
0.0711892
0.0814693
0.0221912
0.0231663
0.0242905
0.0252256
0.0260584
0.026851
0.0276149
0.0283543
0.0290766
0.0297897
0.0305017
0.0312205
0.0319544
0.0327124
0.0335042
0.0343412
0.0352375
0.03621
0.0372788
0.0384688
0.0398123
0.0413525
0.0431459
0.0452707
0.0478367
0.0510064
0.0550143
0.0601825
0.0669983
0.0760502
0.0178715
0.018809
0.0205564
0.0219378
0.0230912
0.0241631
0.0251874
0.0261729
0.0271296
0.028067
0.0289932
0.0299161
0.0308438
0.0317849
0.0327478
0.0337428
0.0347828
0.0358841
0.0370655
0.0383485
0.0397607
0.0413415
0.0431386
0.0452177
0.0476678
0.0506242
0.054272
0.0588242
0.0645082
0.0718454
0.0656079
0.0637131
0.0597223
0.0548455
0.049728
0.0444659
0.039056
0.0335336
0.0279566
0.0223855
0.0168776
0.011486
0.00625848
0.00123646
-0.00354573
-0.0080607
-0.0122877
-0.0162119
-0.0198252
-0.0231252
-0.0261079
-0.0287614
-0.0311111
-0.0331656
-0.0349359
-0.0364475
-0.0377458
-0.03882
-0.0393744
-0.0388546
0.0548004
0.0545923
0.0521562
0.0485099
0.0445563
0.0404678
0.036213
0.0317972
0.0272613
0.0226562
0.0180348
0.0134511
0.00895824
0.00460643
0.000440883
-0.00349975
-0.00718438
-0.0105898
-0.0137001
-0.0165061
-0.0190095
-0.0212294
-0.0231614
-0.0248201
-0.0262266
-0.0274192
-0.0284507
-0.0292469
-0.0293155
-0.0281462
0.0486102
0.0491492
0.047458
0.0445126
0.0412645
0.0378973
0.0343672
0.0306655
0.0268215
0.0228763
0.0188758
0.0148695
0.0109091
0.00704584
0.00332814
-0.000201126
-0.00350628
-0.00656001
-0.00934378
-0.0118478
-0.0140708
-0.0160186
-0.0177018
-0.0191351
-0.020339
-0.021354
-0.0222373
-0.0228992
-0.0227712
-0.0212809
0.044428
0.0453394
0.0441022
0.0416494
0.0389006
0.0360298
0.032992
0.0297758
0.0264062
0.0229195
0.0193572
0.0157659
0.0121954
0.00869666
0.00531866
0.00210598
-0.000903597
-0.00368062
-0.00620477
-0.00846501
-0.010459
-0.0121918
-0.0136744
-0.0149212
-0.0159522
-0.0168069
-0.0175431
-0.0180703
-0.0178087
-0.0161641
0.0413814
0.0424538
0.0414948
0.0393977
0.0370221
0.0345241
0.0318585
0.0290133
0.0260104
0.0228823
0.0196672
0.0164086
0.0131545
0.00995467
0.00685791
0.00390906
0.00114664
-0.00139901
-0.00370677
-0.00576493
-0.00757067
-0.00912887
-0.0104502
-0.0115487
-0.0124434
-0.0131722
-0.0137917
-0.0142174
-0.0138807
-0.0121672
0.0390882
0.0402098
0.0394282
0.0375967
0.0355076
0.0332969
0.0309198
0.0283653
0.0256528
0.0228118
0.0198775
0.016891
0.0138982
0.0109475
0.00808675
0.00536028
0.00280662
0.000456261
-0.0016694
-0.00355835
-0.00520748
-0.00662136
-0.00781034
-0.00878805
-0.00957258
-0.0101995
-0.0107245
-0.0110719
-0.0106934
-0.00895185
0.0372923
0.0384135
0.0377463
0.0361193
0.0342579
0.0322765
0.0301313
0.0278122
0.0253369
0.0227323
0.0200312
0.0172725
0.0145002
0.011761
0.00910161
0.00656572
0.00419132
0.00200868
3.9146e-05
-0.00170524
-0.00322122
-0.00451313
-0.00559106
-0.00646834
-0.00716217
-0.00770601
-0.00815443
-0.00844223
-0.0080433
-0.00629494
0.0358666
0.0369414
0.0363494
0.0348818
0.0332064
0.0314137
0.0294601
0.0273369
0.0250603
0.0226552
0.0201521
0.017588
0.0150051
0.0124486
0.00996392
0.00759373
0.00537538
0.0033387
0.00150472
-0.000114608
-0.00151601
-0.00270371
-0.00368759
-0.00448075
-0.00509963
-0.00557567
-0.00596251
-0.00620526
-0.00580031
-0.00405594
0.0346983
0.0356994
0.0351656
0.0338295
0.032307
0.0306729
0.0288817
0.0269252
0.0248189
0.0225855
0.0202538
0.017859
0.0154416
0.0130453
0.0107141
0.00848986
0.00640898
0.0045007
0.00278569
0.00127563
-2.6248e-05
-0.00112411
-0.00202771
-0.00274995
-0.00330664
-0.00372728
-0.0040646
-0.00427369
-0.00387243
-0.00213736
0.0337195
0.0346273
0.0341344
0.0329214
0.0315264
0.0300271
0.0283764
0.0265651
0.0246074
0.0225247
0.0203441
0.0180989
0.0158282
0.0135743
0.0113799
0.00928558
0.00732708
0.00553293
0.0039233
0.00250957
0.00129485
0.000275004
-0.000559627
-0.00122179
-0.00172673
-0.00210214
-0.00239979
-0.00258419
-0.00219352
-0.000470197
0.0328836
0.0336799
0.0332154
0.0321201
0.0308406
0.0294556
0.0279284
0.026246
0.0244207
0.0224725
0.020427
0.0183161
0.0161774
0.0140517
0.0119805
0.0100033
0.00815493
0.00646318
0.00494771
0.00361961
0.00248178
0.00153011
0.000755037
0.000143934
-0.000317918
-0.000656528
-0.000922617
-0.00108954
-0.000714548
0.000995844
0.0321498
0.0328357
0.0323882
0.0313907
0.0302281
0.0289423
0.0275247
0.0259588
0.0242534
0.0224271
0.0205045
0.018516
0.0164976
0.0144889
0.01253
0.0106595
0.0089112
0.0073122
0.00588163
0.00463021
0.00356071
0.00266897
0.00194555
0.00137793
0.000951885
0.000642996
0.000401676
0.000246337
0.000601683
0.00229822
0.0314923
0.0320614
0.0316317
0.0307211
0.0296661
0.028474
0.0271542
0.0256953
0.0241004
0.0223866
0.0205774
0.0187019
0.0167947
0.014894
0.0130388
0.0112666
0.00961014
0.00809596
0.0067426
0.00556042
0.00455203
0.00371327
0.00303478
0.00250423
0.00210778
0.00182256
0.00160021
0.00145152
0.00178391
0.0034652
0.0308923
0.0313376
0.0309282
0.0300987
0.0291367
0.0280418
0.0268081
0.0254481
0.023957
0.0223486
0.0206455
0.0188758
0.0170727
0.015273
0.0135147
0.011834
0.0102629
0.00882703
0.00754452
0.00642538
0.00547203
0.00468033
0.00404105
0.00354202
0.0031698
0.00290296
0.00269448
0.00254817
0.00285466
0.0045182
0.030326
0.0306543
0.0302669
0.0295091
0.0286301
0.0276341
0.0264814
0.0252121
0.0238191
0.0223107
0.0207082
0.0190389
0.0173345
0.0156306
0.0139638
0.0123694
0.0108783
0.00951558
0.00829873
0.00723745
0.00633402
0.00558434
0.00497931
0.00450694
0.00415418
0.00390097
0.00370176
0.003554
0.00383178
0.00547338
0.0297768
0.029998
0.0296341
0.0289447
0.0281424
0.0272356
0.0261695
0.024982
0.0236825
0.0222704
0.0207647
0.0191918
0.0175822
0.0159702
0.014391
0.0128788
0.0114637
0.01017
0.00901464
0.00800697
0.00714916
0.00643713
0.00586198
0.00541192
0.00507429
0.00483031
0.00463603
0.00448323
0.00472946
0.00634269
0.0292344
0.0293563
0.0290185
0.028397
0.0276643
0.026836
0.0258657
0.024754
0.0235436
0.0222252
0.0208137
0.0193346
0.0178172
0.0162944
0.0148001
0.0133674
0.0120254
0.0107976
0.00970034
0.00874279
0.00792695
0.00724879
0.0066996
0.00626784
0.00594122
0.00570221
0.00550862
0.00534724
0.00555892
0.00713454
0.0286916
0.0287179
0.0284077
0.0278535
0.0271897
0.0264348
0.0255586
0.0245253
0.0233989
0.0221726
0.0208539
0.0194671
0.0180405
0.0166054
0.0151945
0.0138395
0.0125686
0.0114045
0.0103629
0.0094527
0.00867573
0.00802806
0.00750121
0.0070839
0.00676427
0.00652593
0.00632866
0.00615507
0.00632891
0.0078543
0.028141
0.0280733
0.0277935
0.0273064
0.0267112
0.0260279
0.0252391
0.0242929
0.023245
0.0221097
0.0208838
0.0195889
0.0182527
0.0169049
0.0155769
0.014299
0.0130982
0.0119964
0.0110088
0.0101437
0.00940294
0.00878268
0.00827467
0.00786799
0.00755116
0.00730898
0.00710337
0.00691362
0.00704595
0.00850467
0.027573
0.0274159
0.0271692
0.0267496
0.0262242
0.0256084
0.0248994
0.0240526
0.0230798
0.022034
0.0209015
0.0196992
0.0184541
0.0171944
0.0159499
0.0147494
0.0136187
0.0125787
0.0116439
0.0108222
0.0101154
0.0095196
0.00902693
0.00862683
0.00830832
0.00805734
0.00783822
0.00762787
0.00771449
0.00908595
0.0269777
0.0267385
0.0265278
0.0261751
0.0257196
0.0251733
0.0245407
0.0237948
0.0229015
0.0219433
0.0209053
0.0197973
0.0186449
0.0174751
0.0163156
0.0151939
0.0141342
0.0131563
0.0122739
0.0114944
0.0108194
0.0102452
0.00976409
0.00936615
0.00904093
0.00877554
0.00853697
0.00830092
0.00833701
0.00959629
0.0263451
0.0260337
0.0258627
0.0255774
0.0251921
0.0247172
0.0241608
0.0235118
0.0227083
0.0218345
0.020893
0.0198819
0.0188249
0.0177477
0.0166762
0.0156357
0.014649
0.0137343
0.0129045
0.0121664
0.0115211
0.0109653
0.0104916
0.0100908
0.00975302
0.0094667
0.00920179
0.00893407
0.00891393
0.0100321
0.0256626
0.0252937
0.0251669
0.0249504
0.0246371
0.0242373
0.0237563
0.0231963
0.0224969
0.0217044
0.0208619
0.0199516
0.0189938
0.0180133
0.0170336
0.0160781
0.0151673
0.014318
0.0135416
0.0128442
0.0122266
0.0116856
0.0112145
0.0108047
0.0104475
0.0101325
0.00983317
0.00952673
0.00944361
0.0103881
0.0249135
0.0245085
0.0244321
0.0242873
0.0240481
0.023726
0.023323
0.0228475
0.0222613
0.0215524
0.02081
0.0200047
0.019151
0.0182723
0.0173899
0.0165243
0.0156936
0.0149126
0.0141909
0.0135336
0.0129413
0.0124108
0.0119364
0.0115105
0.0111254
0.0107728
0.0104295
0.010076
0.00992192
0.0106585
0.0240756
0.0236644
0.0236462
0.0235781
0.0234178
0.0231765
0.0228553
0.0224662
0.0219926
0.0213775
0.0207352
0.0200398
0.0192959
0.0185255
0.0177469
0.0169773
0.016232
0.0155227
0.0148573
0.0142394
0.0136691
0.0131437
0.0126587
0.0122079
0.0117852
0.0113841
0.0109859
0.0105764
0.0103422
0.010837
0.0231285
0.0227564
0.022803
0.0228151
0.0227407
0.0225859
0.022351
0.0220515
0.0216852
0.0211754
0.020633
0.0200534
0.0194264
0.0187719
0.0181054
0.01744
0.016787
0.0161544
0.0155476
0.0149681
0.0144153
0.0138886
0.0133845
0.0128982
0.0124259
0.0119638
0.0114984
0.0110228
0.0106982
0.0109203
0.022038
0.0218139
0.0219427
0.0220255
0.0220346
0.0219672
0.0218183
0.0216048
0.0213355
0.0209412
0.020495
0.0200356
0.0195341
0.0190071
0.0184664
0.0179198
0.0173729
0.0168285
0.0162874
0.0157484
0.0152098
0.0146754
0.0141418
0.0136061
0.0130682
0.0125282
0.0119791
0.0114235
0.0109904
0.0109082
0.0205952
0.0207788
0.0210937
0.0212476
0.0213233
0.0213315
0.0212601
0.0211198
0.0209321
0.0206612
0.0203116
0.0199764
0.0196132
0.019233
0.0188418
0.0184394
0.0180226
0.017586
0.0171241
0.0166322
0.016109
0.015554
0.0149736
0.0143673
0.0137398
0.0130971
0.0124402
0.01178
0.0112033
0.0107863
0.0181148
0.0189104
0.0197101
0.0201109
0.0203398
0.0204811
0.0205369
0.0205164
0.0204485
0.0203303
0.0201205
0.0199334
0.019728
0.0195072
0.0192695
0.0190059
0.0187039
0.0183524
0.0179409
0.0174664
0.0169468
0.0163134
0.0156488
0.0149441
0.0142072
0.0134496
0.0126793
0.0119109
0.0111845
0.01048
0.0142051
0.0147978
0.016266
0.0173509
0.0181374
0.0187623
0.019252
0.0196179
0.0198879
0.0200723
0.0201342
0.0201479
0.0200853
0.0199425
0.0197182
0.0194087
0.019011
0.0185282
0.0179634
0.0173166
0.0165824
0.0158653
0.0151103
0.0143325
0.0135521
0.0127817
0.012031
0.0113147
0.0106428
0.00996004
-0.0405331
-0.0325898
-0.0265918
-0.0217212
-0.0177009
-0.0143539
-0.0115305
-0.00912117
-0.00704279
-0.00523214
-0.00364055
-0.00223005
-0.000970625
0.000161766
0.00118662
0.0021199
0.00297474
0.00376194
0.00449026
0.00516656
0.00579578
0.00638091
0.00692285
0.00742031
0.00786941
0.00826182
0.00858762
0.00884453
0.00903418
0.00908026
-0.0406843
-0.0326138
-0.0263211