/*--------------------------------*- C++ -*----------------------------------*\
  =========                 |
  \\      /  F ield         | OpenFOAM: The Open Source CFD Toolbox
   \\    /   O peration     | Website:  https://openfoam.org
    \\  /    A nd           | Version:  12
     \\/     M anipulation  |
\*---------------------------------------------------------------------------*/
FoamFile
{
    format      ascii;
    class       surfaceScalarField;
    location    "300";
    object      phi;
}
// * * * * * * * * * * * * * * * * * * * * * * * * * * * * * * * * * * * * * //

dimensions      [0 3 -1 0 0 0 0];

internalField   nonuniform List<scalar> 
13275
(
0.369023
-0.00462585
0.369481
-0.0114853
0.369794
-0.015406
0.369909
-0.0173604
-0.0180303
0.369849
0.351098
-0.00489894
0.351461
-0.0118474
0.351681
-0.0156269
0.351643
-0.0173216
-0.0176327
0.351245
0.334002
-0.00502184
0.334077
-0.0119231
0.333968
-0.0155178
0.333634
-0.0169875
-0.0170942
0.333096
0.317721
-0.00499241
0.317511
-0.0117124
0.317103
-0.01511
0.316533
-0.0164174
-0.0164199
0.315858
0.302245
-0.00483563
0.30179
-0.0112573
0.301125
-0.0144449
0.300336
-0.0156286
-0.0155831
0.299499
0.287534
-0.00457544
0.286872
-0.0105954
0.285978
-0.0135508
0.284977
-0.0146276
-0.0145641
0.283958
0.273546
-0.00422915
0.272706
-0.00975557
0.271606
-0.0124508
0.270403
-0.013424
-0.0133583
0.269197
0.260244
-0.00381048
0.259251
-0.00876343
0.25797
-0.0111696
0.256582
-0.0120356
-0.0119758
0.255199
0.247593
-0.00333254
0.246476
-0.00764606
0.245043
-0.00973699
0.243497
-0.0104894
-0.010439
0.24196
0.235564
-0.00280909
0.234352
-0.00643307
0.232802
-0.00818792
0.231133
-0.00882035
-0.0087804
0.229475
0.224129
-0.0022545
0.222852
-0.00515584
0.221225
-0.0065607
0.219472
-0.00706804
-0.00703809
0.21773
0.213259
-0.00168321
0.211949
-0.00384579
0.210283
-0.00489419
0.208488
-0.00527342
-0.00525239
0.206702
0.202927
-0.00110911
0.201614
-0.00253242
0.199945
-0.00322517
0.198147
-0.00347549
-0.0034621
0.196357
0.193107
-0.000544756
0.191817
-0.00124219
0.190177
-0.00158589
0.18841
-0.00170853
-0.00170182
0.18665
0.183771
-1.32742e-07
0.18253
-2.94654e-07
0.180944
-3.66303e-07
0.179236
-3.82228e-07
-3.68666e-07
0.177534
0.183771
0.00054449
0.18253
0.0012416
0.180944
0.00158516
0.179236
0.00170777
0.00170108
0.177534
0.193107
0.00110884
0.191817
0.00253183
0.190177
0.00322444
0.18841
0.00347473
0.00346137
0.18665
0.202927
0.00168295
0.201614
0.00384521
0.199945
0.00489347
0.198147
0.00527267
0.00525166
0.196357
0.213259
0.00225423
0.211949
0.00515526
0.210283
0.00655998
0.208488
0.00706729
0.00703737
0.206702
0.224129
0.00280883
0.222852
0.00643249
0.221225
0.00818721
0.219472
0.00881961
0.00877969
0.21773
0.235564
0.00333229
0.234351
0.00764549
0.232802
0.00973629
0.231133
0.0104887
0.0104383
0.229475
0.247593
0.00381023
0.246476
0.00876287
0.245043
0.0111689
0.243497
0.0120349
0.0119751
0.24196
0.260244
0.0042289
0.259251
0.00975502
0.25797
0.0124502
0.256582
0.0134233
0.0133577
0.255199
0.273546
0.0045752
0.272706
0.0105949
0.271606
0.0135502
0.270403
0.0146269
0.0145634
0.269197
0.287534
0.0048354
0.286872
0.0112568
0.285978
0.0144442
0.284977
0.0156279
0.0155824
0.283958
0.302245
0.00499219
0.30179
0.0117119
0.301125
0.0151094
0.300336
0.0164167
0.0164192
0.299499
0.317721
0.00502162
0.317511
0.0119226
0.317103
0.0155172
0.316533
0.0169868
0.0170936
0.315858
0.334002
0.00489873
0.334077
0.0118469
0.333968
0.0156263
0.333634
0.0173209
0.0176321
0.333096
0.351098
0.00462565
0.35146
0.0114849
0.351681
0.0154055
0.351642
0.0173598
0.0180298
0.351245
0.369023
0.369481
0.369794
0.369909
0.369849
0.197357
-0.0505304
-0.197397
0.196944
-0.0577707
0.195919
-0.0640418
0.194264
-0.0695589
0.192035
-0.0742867
0.189302
-0.0781599
0.186137
-0.0810873
0.182617
-0.0829461
0.17883
-0.0835921
0.174887
-0.082976
0.170876
-0.0809014
0.166952
-0.077231
0.163258
-0.0720479
0.15994
-0.0654428
0.157128
-0.0575941
0.154927
-0.0487573
0.153409
-0.0392444
0.152606
-0.0293931
0.152514
-0.0195393
0.153091
-0.009991
0.154249
-0.000976779
0.15595
0.00729017
0.158083
0.0147221
0.160556
0.0212262
0.163282
0.0267832
0.16618
0.0314125
0.169182
0.03516
0.172224
0.0380874
0.175249
0.0402648
0.0417578
0.178165
0.194725
-0.0506494
-0.194606
0.194061
-0.0571066
0.192707
-0.0626878
0.190763
-0.0676146
0.188306
-0.0718298
0.185409
-0.0752626
0.182138
-0.0778166
0.178564
-0.0793716
0.17477
-0.079799
0.170856
-0.0790612
0.166899
-0.0769447
0.163048
-0.0733797
0.159434
-0.0684343
0.156189
-0.0621973
0.15343
-0.0548351
0.151254
-0.0465813
0.149727
-0.0377173
0.148881
-0.0285474
0.148713
-0.0193717
0.149185
-0.0104624
0.150252
-0.00204449
0.151826
0.00571661
0.153838
0.0127099
0.1562
0.0188645
0.158827
0.024156
0.161643
0.0285966
0.16458
0.0322228
0.167581
0.0350862
0.17059
0.0372563
0.0388659
0.173482
0.191408
-0.0503902
-0.191668
0.190441
-0.0561395
0.188874
-0.0611201
0.186784
-0.0655252
0.18424
-0.0692853
0.1813
-0.0723222
0.178021
-0.0745377
0.174468
-0.0758187
0.170726
-0.0760571
0.166873
-0.0752086
0.162994
-0.0730653
0.159225
-0.0696107
0.155688
-0.0648973
0.152503
-0.0590129
0.149782
-0.0521135
0.147613
-0.044413
0.146062
-0.0361661
0.145161
-0.0276459
0.14491
-0.0191207
0.145281
-0.0108337
0.146224
-0.00298769
0.147673
0.00426759
0.149556
0.0108273
0.151792
0.0166283
0.154302
0.0216458
0.157012
0.025887
0.159854
0.0293806
0.162772
0.0321679
0.165715
0.0343136
0.0360201
0.168561
0.187981
-0.0497897
-0.188582
0.186757
-0.0549152
0.185007
-0.0593701
0.182791
-0.0633096
0.180166
-0.0666603
0.177184
-0.0693403
0.173899
-0.0712522
0.170368
-0.0722884
0.16668
-0.0723684
0.162891
-0.0714201
0.159094
-0.0692685
0.15541
-0.0659269
0.15195
-0.0614372
0.148824
-0.0558868
0.146133
-0.0494223
0.143961
-0.0422407
0.142368
-0.0345735
0.141389
-0.0266666
0.141028
-0.0187602
0.141266
-0.0110713
0.142059
-0.00378056
0.143351
0.00297534
0.145076
0.00910204
0.147162
0.0145426
0.149534
0.0192734
0.152123
0.0232988
0.154862
0.0266417
0.157695
0.0293345
0.160575
0.031434
0.0332094
0.163385
0.184473
-0.0488974
-0.185365
0.183024
-0.053466
0.181106
-0.057452
0.178771
-0.0609751
0.17607
-0.0639588
0.173049
-0.0663191
0.169758
-0.0679611
0.166253
-0.068784
0.162615
-0.0687305
0.15889
-0.0676947
0.155173
-0.065552
0.151571
-0.0623246
0.148184
-0.0580501
0.145112
-0.0528147
0.142447
-0.0467571
0.140266
-0.0400599
0.138627
-0.0329344
0.137563
-0.025603
0.137084
-0.0182814
0.137176
-0.0111634
0.137806
-0.00440963
0.138924
0.00185729
0.140472
0.00755319
0.142387
0.0126276
0.144601
0.0170594
0.147049
0.0208517
0.149667
0.0240234
0.152402
0.0265999
0.155206
0.0286292
0.0304376
0.157978
0.180853
-0.0477421
-0.182008
0.179199
-0.0518125
0.17713
-0.0553825
0.17469
-0.0585351
0.171922
-0.0611913
0.16887
-0.0632665
0.165578
-0.0646699
0.162104
-0.0653093
0.158513
-0.0651397
0.15485
-0.0640313
0.151209
-0.0619113
0.147683
-0.0587985
0.144363
-0.0547306
0.141341
-0.0497925
0.1387
-0.0441159
0.136511
-0.0378707
0.134827
-0.0312508
0.133683
-0.0244585
0.133089
-0.0176878
0.133037
-0.0111119
0.133502
-0.00487382
0.134441
0.000917843
0.135805
0.00618876
0.137538
0.0108951
0.139579
0.0150188
0.141867
0.0185633
0.144345
0.021545
0.146961
0.0239841
0.14967
0.0259206
0.027723
0.152384
0.1771
-0.0463483
-0.178494
0.175264
-0.049976
0.173061
-0.0531798
0.17053
-0.0560043
0.167708
-0.0583687
0.164632
-0.0601904
0.161345
-0.0613836
0.157903
-0.0618667
0.154356
-0.0615924
0.150753
-0.0604286
0.147183
-0.0583414
0.143728
-0.0553433
0.140471
-0.0514741
0.137496
-0.0468172
0.134878
-0.0414983
0.132684
-0.0356759
0.130962
-0.0295288
0.129745
-0.0232413
0.129045
-0.0169887
0.128859
-0.010926
0.129166
-0.00518022
0.129931
0.000152859
0.131111
0.00500841
0.132657
0.00934903
0.134516
0.0131604
0.136632
0.0164467
0.138954
0.019223
0.141432
0.0215065
0.144022
0.0233304
0.0250891
0.146656
0.173206
-0.0447423
-0.174812
0.17121
-0.0479795
0.168892
-0.0508621
0.166284
-0.0533962
0.163417
-0.0555014
0.160325
-0.057098
0.157046
-0.0581053
0.153636
-0.0584563
0.15013
-0.0580864
0.146586
-0.0568845
0.143082
-0.0548374
0.139693
-0.0519542
0.136495
-0.0482768
0.133566
-0.0438874
0.130973
-0.0389058
0.128778
-0.0334805
0.127025
-0.0277765
0.125747
-0.0219624
0.124955
-0.0161969
0.124648
-0.0106188
0.124808
-0.00534102
0.125409
-0.000447514
0.126412
0.00400566
0.127773
0.00798719
0.129447
0.0114864
0.131385
0.0145088
0.133539
0.0170692
0.135863
0.0191826
0.138315
0.0208779
0.0225597
0.140845
0.169165
-0.0429515
-0.170956
0.167032
-0.0458458
0.164616
-0.0484464
0.161943
-0.0507235
0.15904
-0.0525983
0.155937
-0.0539952
0.152671
-0.0548384
0.14929
-0.0550754
0.145824
-0.0546212
0.142337
-0.0533966
0.138895
-0.0513955
0.135568
-0.0486275
0.132428
-0.0451364
0.129543
-0.0410028
0.126978
-0.0363411
0.124788
-0.0312903
0.123015
-0.0260033
0.121687
-0.0206342
0.120817
-0.0153268
0.120404
-0.0102059
0.120434
-0.00537143
0.120884
-0.000896968
0.12172
0.00316943
0.122905
0.00680206
0.124398
0.00999369
0.126155
0.0127515
0.128134
0.0150899
0.130293
0.0170234
0.132593
0.018578
0.0201556
0.134997
0.164973
-0.0410026
-0.166922
0.162724
-0.0435963
0.160226
-0.0459485
0.1575
-0.0479974
0.154569
-0.049667
0.15146
-0.0508866
0.148209
-0.0515872
0.144856
-0.0517222
0.141431
-0.0511967
0.137997
-0.0499623
0.134614
-0.0480129
0.131347
-0.0453609
0.128263
-0.0420517
0.125424
-0.0381644
0.122891
-0.0338077
0.120713
-0.0291121
0.118928
-0.024219
0.117563
-0.0192693
0.11663
-0.0143936
0.116128
-0.0097037
0.116045
-0.00528825
0.116359
-0.00121149
0.117043
0.00248561
0.118063
0.00578239
0.119382
0.00867472
0.120962
0.0111712
0.122765
0.0132866
0.124754
0.0150349
0.126891
0.0164409
0.0178935
0.129153
0.160626
-0.0389208
-0.162708
0.158281
-0.0412508
0.155715
-0.043383
0.152946
-0.0452285
0.149994
-0.0467148
0.146884
-0.0477767
0.143651
-0.0483545
0.140325
-0.0483958
0.136942
-0.0478135
0.133559
-0.0465797
0.130234
-0.0446876
0.127026
-0.0421531
0.123997
-0.0390229
0.121207
-0.0353741
0.11871
-0.0313101
0.116551
-0.0269531
0.114765
-0.0224336
0.113376
-0.0178806
0.112395
-0.0134122
0.11182
-0.00912877
0.111641
-0.00510876
0.111837
-0.00140819
0.112385
0.00193828
0.113253
0.00491433
0.114409
0.00751854
0.115819
0.00976081
0.11745
0.011656
0.119266
0.0132183
0.121236
0.0144719
0.0157854
0.123344
0.15612
-0.0367296
-0.158311
0.153696
-0.0388273
0.151077
-0.0407632
0.148275
-0.0424268
0.145309
-0.0437492
0.142202
-0.0446697
0.138988
-0.0451407
0.13569
-0.0450977
0.13235
-0.0444728
0.129018
-0.0432484
0.12575
-0.0414193
0.122601
-0.0390044
0.11963
-0.0360513
0.11689
-0.0326349
0.114434
-0.0288535
0.112301
-0.0248207
0.110525
-0.0206571
0.109125
-0.0164803
0.10811
-0.0123971
0.107478
-0.00849721
0.107219
-0.00485009
0.107315
-0.00150439
0.107743
0.00151068
0.108475
0.00418252
0.109481
0.00651197
0.110732
0.00850988
0.112197
0.0101913
0.113845
0.0115703
0.115646
0.0126715
0.0138379
0.117593
0.15145
-0.0344504
-0.153729
0.148964
-0.036342
0.146303
-0.0381014
0.143477
-0.0396011
0.140504
-0.0407763
0.137406
-0.0415721
0.134213
-0.0419473
0.130945
-0.0418301
0.127648
-0.0411757
0.124369
-0.0399692
0.121158
-0.0382086
0.11807
-0.035916
0.115158
-0.0331393
0.112474
-0.0299508
0.110064
-0.0264433
0.107966
-0.0227226
0.106208
-0.0188992
0.104808
-0.0150803
0.103772
-0.011362
0.1031
-0.00782435
0.102778
-0.00452867
0.102791
-0.00151708
0.103116
0.00118593
0.103727
0.00357089
0.104599
0.00564042
0.105703
0.00740601
0.107011
0.00888258
0.108497
0.0100845
0.110132
0.0110363
0.0120532
0.111917
0.14661
-0.0321027
-0.148958
0.144077
-0.0338092
0.141385
-0.0354089
0.138544
-0.0367604
0.135571
-0.0378028
0.132488
-0.0384892
0.129316
-0.0387759
0.126083
-0.0385969
0.122832
-0.0379241
0.119606
-0.0367437
0.116455
-0.0350577
0.11343
-0.0328906
0.110581
-0.0302903
0.107957
-0.0273263
0.105599
-0.0240857
0.103543
-0.0206663
0.101813
-0.0171693
0.100424
-0.0136917
0.0993818
-0.0103197
0.098682
-0.00712453
0.0983134
-0.00415999
0.0982588
-0.00146248
0.0984971
0.000947585
0.0990047
0.00306333
0.0997564
0.00488869
0.100727
0.00643546
0.101891
0.00771831
0.103224
0.00875152
0.104701
0.00955993
0.0104293
0.106324
0.141593
-0.0297036
-0.143992
0.139026
-0.0312425
0.136314
-0.032697
0.133467
-0.0339138
0.1305
-0.0348357
0.127436
-0.0354249
0.124291
-0.0356307
0.121097
-0.0354028
0.117894
-0.0347215
0.114725
-0.0335752
0.111638
-0.0319698
0.108679
-0.0299319
0.105897
-0.0275087
0.103337
-0.0247666
0.101039
-0.0217869
0.0990318
-0.0186595
0.097339
-0.0154764
0.0959723
-0.012325
0.0949349
-0.00928226
0.0942214
-0.00641104
0.0938199
-0.00375847
0.0937132
-0.00135582
0.0938808
0.00077999
0.0943
0.00264416
0.0949471
0.00424155
0.0957986
0.00558397
0.0968313
0.00668556
0.0980224
0.00756046
0.099349
0.00823336
0.00896088
0.100817
0.136386
-0.0272685
-0.138821
0.133799
-0.0286553
0.131079
-0.0299768
0.128235
-0.0310701
0.125282
-0.0318834
0.122241
-0.0323834
0.119128
-0.0325175
0.115978
-0.0322527
0.112828
-0.0315719
0.109721
-0.0304677
0.1067
-0.0289492
0.103813
-0.0270444
0.101104
-0.0247996
0.0986145
-0.0222775
0.0963811
-0.0195535
0.0944314
-0.0167098
0.0927842
-0.0138293
0.0914493
-0.0109902
0.0904277
-0.00826066
0.0897128
-0.00569607
0.0892916
-0.00333732
0.089147
-0.00121116
0.0892585
0.000668491
0.0896041
0.00229848
0.0901615
0.00368422
0.0909082
0.00483722
0.0918228
0.00577097
0.0928841
0.00649918
0.0940713
0.00704612
0.00764013
0.0953921
0.130978
-0.0248118
-0.133434
0.128384
-0.0260613
0.125666
-0.0272592
0.122834
-0.0282379
0.119904
-0.0289534
0.116891
-0.0293702
0.113817
-0.0294437
0.110717
-0.0291523
0.107626
-0.0284811
0.104585
-0.0274268
0.101637
-0.0260015
0.0988266
-0.0242339
0.0961959
-0.0221689
0.0937838
-0.0198654
0.0916228
-0.0173925
0.0897376
-0.0148246
0.0881445
-0.0122361
0.0868506
-0.00969627
0.085855
-0.00726507
0.0851497
-0.00499074
0.0847209
-0.00290859
0.0845511
-0.00104136
0.08462
0.00059959
0.0849062
0.00201237
0.0853877
0.00320263
0.0860436
0.00418137
0.0868534
0.00496117
0.0877974
0.00555515
0.0888567
0.00598681
0.00645764
0.0900392
0.125351
-0.022348
-0.127815
0.122764
-0.0234741
0.12006
-0.0245553
0.117249
-0.0254276
0.114349
-0.0260531
0.111372
-0.026393
0.108346
-0.0264173
0.105302
-0.0261086
0.102276
-0.0254557
0.0993088
-0.0244591
0.0964405
-0.0231332
0.0937136
-0.021507
0.0911681
-0.0196234
0.0888398
-0.0175371
0.0867581
-0.0153109
0.084945
-0.0130115
0.0834139
-0.0107049
0.0821696
-0.00845196
0.0812093
-0.0063048
0.0805237
-0.00430513
0.0800983
-0.00248317
0.0799149
-0.000858038
0.0799535
0.000561024
0.0801928
0.00177308
0.0806117
0.00278375
0.0811898
0.00360328
0.0819077
0.00424323
0.0827469
0.00471595
0.08369
0.00504374
0.00540304
0.0847446
0.119487
-0.0198929
-0.121942
0.116919
-0.0209061
0.11424
-0.0218762
0.111462
-0.0226499
0.108599
-0.02319
0.105668
-0.023462
0.102698
-0.023447
0.0997189
-0.02313
0.0967672
-0.022504
0.0938807
-0.0215726
0.0910996
-0.0203521
0.0884638
-0.0188713
0.0860109
-0.0171705
0.0837736
-0.0152999
0.0817788
-0.013316
0.0800451
-0.0112779
0.0785836
-0.00924342
0.0773969
-0.00726526
0.0764805
-0.00538839
0.0758237
-0.00364837
0.0754114
-0.00207078
0.0752249
-0.000671584
0.0752441
0.0005418
0.0754481
0.00156909
0.0758162
0.00241566
0.0763286
0.00309084
0.0769668
0.00360504
0.0777131
0.00396965
0.0785514
0.00420547
0.00446571
0.0794887
0.113359
-0.0174624
-0.115789
0.110823
-0.0183701
0.108181
-0.0192339
0.105446
-0.019915
0.10263
-0.0203746
0.099757
-0.0205886
0.096853
-0.020543
0.0939493
-0.0202263
0.0910807
-0.0196353
0.0882846
-0.0187765
0.0855996
-0.0176671
0.0830635
-0.0163352
0.0807113
-0.0148183
0.0785731
-0.0131616
0.0766725
-0.0114154
0.0750259
-0.00963124
0.0736414
-0.00785898
0.0725199
-0.00614372
0.0716551
-0.00452362
0.0710354
-0.00302862
0.0706447
-0.00168008
0.0704642
-0.000491164
0.0704738
0.000532217
0.0706527
0.00139021
0.0709806
0.00208775
0.0714383
0.00263313
0.0720079
0.00303551
0.0726723
0.00330518
0.0734166
0.00346117
0.00363526
0.0742471
0.106932
-0.015073
-0.109321
0.104441
-0.0158796
0.10185
-0.0166427
0.0991695
-0.0172346
0.0964155
-0.0176206
0.093612
-0.0177852
0.0907861
-0.0177171
0.0879688
-0.017409
0.0851944
-0.0168609
0.0824993
-0.0160814
0.0799206
-0.0150884
0.0774938
-0.0139084
0.0752514
-0.0125758
0.0732207
-0.0111309
0.0714224
-0.00961715
0.0698702
-0.00807906
0.0685701
-0.00655887
0.0675208
-0.00509445
0.0667148
-0.00371763
0.0661394
-0.00245318
0.065778
-0.00131864
0.0656115
-0.000324733
0.0656199
0.000523885
0.0657825
0.00122759
0.0660795
0.00179077
0.066492
0.00222055
0.0670027
0.00252484
0.0675953
0.00271265
0.0682554
0.00280102
0.00290206
0.0689886
0.100159
-0.0127422
-0.102489
0.0977307
-0.0134516
0.0952053
-0.0141172
0.0925937
-0.014623
0.0899162
-0.014943
0.0871966
-0.0150656
0.0844625
-0.014983
0.0817449
-0.0146914
0.0790776
-0.0141936
0.076496
-0.0134998
0.0740353
-0.0126277
0.0717288
-0.011602
0.0696064
-0.0104533
0.0676923
-0.00921682
0.0660048
-0.00792966
0.0645549
-0.0066291
0.0633462
-0.00535024
0.062376
-0.0041242
0.0616353
-0.00297692
0.0611106
-0.00192847
0.0607849
-0.000992982
0.0606392
-0.000179022
0.0606533
0.000509771
0.060807
0.00107385
0.0610809
0.00151695
0.0614564
0.00184504
0.0619166
0.00206465
0.0624457
0.00218353
0.0630302
0.00221652
0.00225765
0.0636746
0.0929794
-0.01049
-0.0952316
0.0906324
-0.0111046
0.088189
-0.0116739
0.0856646
-0.0120986
0.0830807
-0.0123591
0.0804617
-0.0124467
0.0778357
-0.0123569
0.0752336
-0.0120894
0.0726888
-0.0116488
0.0702353
-0.0110463
0.0679063
-0.0102987
0.0657328
-0.00942847
0.0637417
-0.00846228
0.0619547
-0.00742984
0.0603872
-0.0063621
0.0590476
-0.00528949
0.0579376
-0.00424031
0.0570529
-0.00323944
0.0563834
-0.00230742
0.055915
-0.00146009
0.0556306
-0.000708544
0.055511
-5.94792e-05
0.0555365
0.000484288
0.0556872
0.00092318
0.0559439
0.00126021
0.0562888
0.00150018
0.0567051
0.00164832
0.0571776
0.001711
0.0576934
0.00170079
0.00169508
0.0582559
0.0853094
-0.00833923
-0.0874602
0.0830636
-0.0088588
0.0807237
-0.00933402
0.0783077
-0.00968264
0.0758379
-0.00988924
0.0733396
-0.00994839
0.0708414
-0.00985874
0.0683742
-0.00962219
0.0659705
-0.00924505
0.0636626
-0.00873839
0.0614817
-0.00811782
0.059456
-0.00740286
0.0576098
-0.00661605
0.0559617
-0.00578173
0.0545243
-0.00492471
0.0533038
-0.00406897
0.0523
-0.00323651
0.051507
-0.00244647
0.0509141
-0.00171454
0.0505068
-0.00105278
0.0502679
-0.00046962
0.0501786
2.98507e-05
0.0502194
0.000443465
0.050371
0.00077153
0.0506149
0.00101635
0.0509335
0.00118157
0.0513107
0.00127119
0.0517314
0.00129025
0.0521833
0.00124893
0.00120936
0.052669
0.077027
-0.00631562
-0.0790506
0.0749085
-0.00674029
0.0726987
-0.00712428
0.0704168
-0.00740074
0.0680864
-0.00755884
0.0657341
-0.00759604
0.0633886
-0.00751329
0.0610806
-0.00731416
0.0588411
-0.00700558
0.0567008
-0.00659803
0.0546882
-0.00610521
0.0528287
-0.00554344
0.0511435
-0.00493085
0.0496483
-0.00428649
0.0483529
-0.00362932
0.0472613
-0.00297733
0.0463715
-0.00234676
0.0456766
-0.00175158
0.0451653
-0.00120321
0.0448229
-0.000710368
0.0446325
-0.000279196
0.0445757
8.65605e-05
0.044634
0.000385252
0.0447885
0.000617021
0.0450213
0.000783473
0.0453157
0.000887216
0.0456558
0.00093111
0.0460271
0.000918926
0.0464175
0.000858527
0.000797912
0.0468289
0.0679535
-0.00445247
-0.0698166
0.0659961
-0.00478293
0.0639496
-0.00507773
0.061835
-0.00528614
0.0596775
-0.00540136
0.0575045
-0.00542301
0.0553447
-0.00535349
0.0532277
-0.00519718
0.051183
-0.00496084
0.0492386
-0.00465368
0.0474204
-0.00428699
0.0457505
-0.00387355
0.0442467
-0.00342707
0.0429217
-0.00296149
0.0417827
-0.0024903
0.0408314
-0.00202606
0.0400646
-0.00157988
0.0394742
-0.00116125
0.0390489
-0.000777858
0.0387741
-0.0004356
0.0386336
-0.000138672
0.0386099
0.000110289
0.0386851
0.000310032
0.0388416
0.000460516
0.0390623
0.000562709
0.0393313
0.000618293
0.0396332
0.000629149
0.0399542
0.000597922
0.0402825
0.000530271
0.000461193
0.0406192
0.0578097
-0.00279378
-0.0594684
0.0560582
-0.00303147
0.0542208
-0.00324034
0.0523205
-0.0033858
0.0503834
-0.00346426
0.0484369
-0.00347657
0.0465091
-0.00342566
0.0446277
-0.00331584
0.0428199
-0.00315298
0.0411106
-0.0029444
0.0395222
-0.00269856
0.0380732
-0.00242457
0.0367779
-0.0021318
0.0356459
-0.00182941
0.0346816
-0.001526
0.0338849
-0.00122937
0.0332513
-0.000946275
0.0327724
-0.000682423
0.032437
-0.000442427
0.0322313
-0.000229861
0.0321399
-4.7327e-05
0.0321468
0.000103435
0.0322353
0.000221498
0.0323892
0.000306642
0.0325926
0.000359286
0.0328306
0.000380324
0.0330889
0.000370836
0.0333543
0.000332522
0.0336155
0.000269048
0.000203474
0.0338732
0.0461319
-0.00140446
-0.0475212
0.0446542
-0.0015538
0.0430968
-0.00168287
0.0414831
-0.00177218
0.0398393
-0.00182037
0.0381913
-0.00182861
0.0365652
-0.00179953
0.034986
-0.00173663
0.0334772
-0.00164423
0.0320601
-0.00152731
0.0307528
-0.00139125
0.0295698
-0.0012415
0.0285213
-0.00108339
0.0276138
-0.000921901
0.0268493
-0.000761502
0.0262261
-0.000606104
0.0257388
-0.000459021
0.0253794
-0.000323009
0.0251373
-0.000200307
0.0250001
-9.27054e-05
0.0249543
-1.53477e-06
0.0249856
7.22157e-05
0.0250792
0.000127863
0.0252207
0.000165089
0.0253961
0.000183908
0.0255918
0.000184596
0.0257951
0.000167599
0.0259938
0.000133851
0.0261775
8.53296e-05
3.44146e-05
0.0263465
0.0320924
-0.000398922
-0.0330979
0.0310085
-0.000469867
0.0298553
-0.000529734
0.0286539
-0.000570756
0.0274269
-0.000593422
0.0261974
-0.000599085
0.0249875
-0.000589664
0.0238182
-0.000567269
0.0227081
-0.000534154
0.0216734
-0.00049264
0.0207272
-0.000445009
0.0198791
-0.000393411
0.0191355
-0.000339785
0.0184994
-0.000285823
0.0179709
-0.000232953
0.0175471
-0.000182356
0.0172231
-0.000134996
0.0169918
-9.16614e-05
0.0168445
-5.30137e-05
0.0167715
-1.97173e-05
0.0167623
7.58927e-06
0.0168048
2.97387e-05
0.0168877
4.50084e-05
0.0169992
5.35774e-05
0.0171278
5.52799e-05
0.0172624
4.99804e-05
0.0173925
3.756e-05
0.0175083
1.80052e-05
0.017602
-8.33575e-06
-3.52838e-05
0.0176717
0.014156
-0.0145549
0.0136861
0.0131564
0.0125856
0.0119922
0.0113931
0.0108035
0.0102362
0.00970205
0.00920941
0.0087644
0.00837099
0.0080312
0.00774538
0.00751243
0.00733007
0.00719507
0.00710341
0.0070504
0.00703068
0.00703827
0.00706801
0.00711302
0.0071666
0.00722188
0.00727186
0.00730942
0.00732742
0.00731909
0.0072838
0.351225
-0.178773
0.333837
-0.177218
0.317076
-0.174907
0.300819
-0.172324
0.28496
-0.169506
0.269412
-0.166461
0.254122
-0.163204
0.239057
-0.159748
0.224202
-0.156101
0.209551
-0.152271
0.195105
-0.148262
0.180874
-0.14408
0.166872
-0.139727
0.153117
-0.135202
0.139629
-0.130504
0.126435
-0.125627
0.113563
-0.120562
0.101044
-0.115295
0.0889119
-0.10981
0.0772043
-0.104082
0.0659635
-0.0980803
0.0552378
-0.0917638
0.045083
-0.0850768
0.0355657
-0.0779428
0.0267681
-0.070253
0.018798
-0.0618465
0.011805
-0.0524754
0.00601771
-0.0417339
0.00183769
-0.0289179
-0.0127172
0.334628
-0.162156
0.318167
-0.160757
0.302124
-0.158864
0.286431
-0.156632
0.27103
-0.154105
0.255887
-0.151318
0.240982
-0.148299
0.226303
-0.145069
0.211848
-0.141646
0.197618
-0.138042
0.183624
-0.134268
0.169877
-0.130333
0.156393
-0.126243
0.143191
-0.122
0.130292
-0.117605
0.117719
-0.113054
0.105496
-0.108339
0.0936504
-0.10345
0.082213
-0.0983723
0.0712162
-0.093085
0.0606968
-0.0875609
0.050697
-0.081764
0.0412657
-0.0756455
0.0324617
-0.0691388
0.0243582
-0.0621495
0.0170517
-0.05454
0.010677
-0.0461007
0.00543846
-0.0364954
0.00167964
-0.0251591
-0.0110376
0.317358
-0.146419
0.301796
-0.145194
0.28649
-0.143558
0.271431
-0.141573
0.256605
-0.139278
0.242002
-0.136715
0.227619
-0.133916
0.213457
-0.130907
0.199521
-0.12771
0.185823
-0.124343
0.172374
-0.12082
0.159192
-0.117151
0.146292
-0.113343
0.133694
-0.109402
0.121418
-0.105329
0.109484
-0.10112
0.0979166
-0.0967713
0.0867392
-0.0922729
0.0759791
-0.0876122
0.0656654
-0.0827713
0.0558312
-0.0777267
0.0465138
-0.0724466
0.0377572
-0.0668889
0.029614
-0.0609956
0.0221504
-0.0546859
0.0154532
-0.0478428
0.00964385
-0.0402913
0.00490315
-0.0317547
0.00152384
-0.0217798
-0.00951376
0.300886
-0.131447
0.286051
-0.130359
0.271388
-0.128895
0.256907
-0.127092
0.242617
-0.124988
0.228526
-0.122625
0.214647
-0.120036
0.200989
-0.11725
0.187568
-0.114289
0.174398
-0.111173
0.161495
-0.107917
0.148877
-0.104532
0.13656
-0.101026
0.124562
-0.0974048
0.112902
-0.0936689
0.1016
-0.0898175
0.0906745
-0.0858461
0.0801487
-0.0817472
0.0700461
-0.0775095
0.0603926
-0.0731178
0.0512174
-0.0685514
0.0425538
-0.063783
0.034441
-0.0587761
0.0269264
-0.053481
0.0200694
-0.0478289
0.0139482
-0.0417216
0.00867053
-0.0350137
0.00439473
-0.0274789
0.00136773
-0.0187528
-0.00814602
0.285161
-0.117108
0.270923
-0.116122
0.256815
-0.114787
0.242859
-0.113135
0.229076
-0.111205
0.215486
-0.109035
0.202108
-0.106658
0.188961
-0.104102
0.176061
-0.101389
0.163427
-0.098539
0.151076
-0.0955655
0.139023
-0.0924799
0.127287
-0.0892903
0.115884
-0.0860014
0.10483
-0.0826151
0.0941433
-0.0791307
0.0838418
-0.0755446
0.0739449
-0.0718503
0.0644735
-0.0680381
0.0554506
-0.0640949
0.046902
-0.0600029
0.0388576
-0.0557386
0.0313523
-0.0512708
0.0244286
-0.0465573
0.0181398
-0.0415401
0.0125554
-0.0361372
0.00777062
-0.0302289
0.00392228
-0.0236305
0.00121781
-0.0160483
-0.00692822
0.270158
-0.103308
0.256441
-0.102404
0.242837
-0.101183
0.229377
-0.0996748
0.216087
-0.0979157
0.202994
-0.0959417
0.19012
-0.093784
0.177486
-0.0914681
0.165112
-0.0890153
0.153016
-0.0864428
0.141214
-0.0837642
0.129724
-0.0809899
0.118561
-0.078127
0.10774
-0.0751801
0.0972757
-0.0721511
0.0871844
-0.0690395
0.077482
-0.0658422
0.0681857
-0.0625539
0.0593137
-0.0591662
0.0508866
-0.0556678
0.0429274
-0.0520437
0.0354625
-0.0482737
0.0285233
-0.0443315
0.0221476
-0.0401816
0.016383
-0.0357755
0.0112912
-0.0310454
0.00695529
-0.025893
0.00349314
-0.0201684
0.00107906
-0.0136342
-0.00584915
0.255881
-0.0899918
0.242644
-0.0891674
0.229519
-0.0880589
0.21654
-0.086696
0.203738
-0.0851135
0.19114
-0.0833436
0.178771
-0.0814144
0.166651
-0.0793489
0.154802
-0.0771662
0.143241
-0.0748816
0.131984
-0.0725072
0.121046
-0.0700521
0.110442
-0.0675227
0.100185
-0.0649232
0.0902891
-0.0622551
0.0807677
-0.0595181
0.0716352
-0.0567097
0.0629066
-0.0538253
0.0545984
-0.0508579
0.0467286
-0.047798
0.0393176
-0.0446327
0.0323891
-0.0413453
0.025971
-0.0379134
0.0200972
-0.0343077
0.0148098
-0.0304881
0.0101632
-0.0263988
0.00623011
-0.0219599
0.00311156
-0.0170498
0.000954692
-0.0114774
-0.00489446
0.242341
-0.077134
0.229567
-0.0763933
0.216912
-0.0754037
0.204411
-0.0741945
0.192094
-0.0727972
0.179991
-0.0712405
0.168126
-0.0695489
0.156519
-0.0677424
0.145191
-0.0658375
0.134157
-0.0638476
0.123432
-0.061783
0.113032
-0.0596514
0.102967
-0.0574586
0.0932521
-0.0552078
0.0838976
-0.0529006
0.0749162
-0.0505367
0.0663205
-0.0481139
0.0581237
-0.0456285
0.0503403
-0.0430746
0.0429865
-0.0404442
0.0360804
-0.0377266
0.0296431
-0.0349079
0.0236995
-0.0319698
0.0182797
-0.028888
0.0134213
-0.0256297
0.00917219
-0.0221496
0.00559554
-0.0183833
0.00277852
-0.0142328
0.000846031
-0.00954486
-0.00404843
0.229554
-0.0647276
0.217239
-0.0640783
0.205051
-0.0632166
0.193027
-0.0621702
0.181197
-0.0609669
0.169588
-0.0596314
0.158223
-0.0581843
0.147123
-0.0566426
0.136306
-0.0550203
0.125787
-0.0533284
0.11558
-0.0515756
0.105697
-0.0497685
0.0961497
-0.0479115
0.0869495
-0.0460076
0.078107
-0.0440581
0.0696329
-0.0420625
0.0615383
-0.0400193
0.0538351
-0.0379253
0.0465361
-0.0357756
0.0396557
-0.0335638
0.0332101
-0.031281
0.0272181
-0.028916
0.0217021
-0.0264538
0.0166889
-0.0238748
0.0122118
-0.0211526
0.00831316
-0.018251
0.00504827
-0.0151184
0.00249262
-0.0116772
0.000753101
-0.00780535
-0.00329533
0.217522
-0.0527747
0.205669
-0.052225
0.193952
-0.0514999
0.182406
-0.0506243
0.171061
-0.049622
0.159943
-0.0485131
0.149073
-0.0473146
0.138471
-0.0460405
0.128153
-0.044702
0.118132
-0.0433082
0.108423
-0.0418659
0.0990348
-0.0403806
0.0899791
-0.0388558
0.0812654
-0.0372939
0.0729032
-0.0356959
0.0649021
-0.0340615
0.057272
-0.0323893
0.0500236
-0.0306768
0.0431682
-0.0289203
0.0367187
-0.0271143
0.0306898
-0.0252521
0.0250982
-0.0233244
0.0199641
-0.0213197
0.0153115
-0.0192222
0.0111701
-0.0170113
0.00757747
-0.0146584
0.00458237
-0.0121233
0.00225073
-0.00934552
0.000675057
-0.00622968
-0.00262027
0.206237
-0.0412816
0.19485
-0.0408382
0.183607
-0.0402564
0.17254
-0.0395572
0.161677
-0.0387597
0.151044
-0.0378799
0.140661
-0.0369309
0.130544
-0.0359238
0.120709
-0.0348673
0.111169
-0.0337683
0.101936
-0.0326323
0.0930183
-0.0314633
0.0844267
-0.0302643
0.0761696
-0.0290368
0.0682555
-0.0277818
0.0606931
-0.026499
0.0534912
-0.0251874
0.0466594
-0.023845
0.0402079
-0.0224688
0.0341484
-0.0210548
0.0284941
-0.0195977
0.0232602
-0.0180905
0.0184648
-0.0165243
0.0141296
-0.014887
0.0102814
-0.0131631
0.00695382
-0.0113308
0.00419014
-0.0093596
0.00204865
-0.00720403
0.000610534
-0.00479156
-0.00200974
0.195675
-0.0302547
0.184759
-0.0299222
0.17399
-0.0294874
0.1634
-0.0289671
0.153016
-0.0283752
0.142859
-0.0277235
0.13295
-0.0270218
0.123305
-0.026278
0.113936
-0.0254986
0.104856
-0.0246885
0.0960755
-0.0238518
0.0876035
-0.0229913
0.0794485
-0.0221092
0.0716183
-0.0212066
0.0641207
-0.0202843
0.0569636
-0.0193419
0.0501549
-0.0183788
0.0437034
-0.0173934
0.0376183
-0.0163838
0.0319104
-0.0153469
0.0265915
-0.0142788
0.0216757
-0.0131747
0.0171794
-0.0120279
0.0131223
-0.01083
0.00952889
-0.00956964
0.00642938
-0.00823125
0.0038629
-0.00679312
0.00188159
-0.00522272
0.00055791
-0.00346788
-0.00145183
0.185801
-0.0196987
0.175357
-0.0194786
0.165061
-0.0191918
0.154944
-0.0188494
0.145029
-0.0184607
0.135339
-0.0180334
0.125891
-0.0175738
0.1167
-0.017087
0.107779
-0.0165773
0.0991382
-0.0160479
0.0907877
-0.0155013
0.0827359
-0.0149394
0.0749903
-0.0143636
0.0675584
-0.0137747
0.0604472
-0.0131731
0.0536639
-0.0125586
0.0472158
-0.0119307
0.0411109
-0.0112885
0.0353579
-0.0106307
0.0299663
-0.00995535
0.0249475
-0.00925995
0.020314
-0.00854128
0.0160813
-0.00779516
0.0122673
-0.00701612
0.00889458
-0.00619687
0.0059908
-0.00532747
0.00359168
-0.004394
0.00174462
-0.00337566
0.000515485
-0.00223874
-0.000936342
0.176566
-0.00961471
0.166594
-0.00950624
0.156767
-0.00936516
0.147115
-0.00919705
0.137661