/*--------------------------------*- C++ -*----------------------------------*\
  =========                 |
  \\      /  F ield         | OpenFOAM: The Open Source CFD Toolbox
   \\    /   O peration     | Website:  https://openfoam.org
    \\  /    A nd           | Version:  12
     \\/     M anipulation  |
\*---------------------------------------------------------------------------*/
FoamFile
{
    format      ascii;
    class       volScalarField;
    location    "300";
    object      pMean;
}
// * * * * * * * * * * * * * * * * * * * * * * * * * * * * * * * * * * * * * //

dimensions      [0 2 -2 0 0 0 0];

internalField   nonuniform List<scalar> 
6750
(
0.0101248
0.0100983
0.0100549
0.00987927
0.00889999
0.0117909
0.011762
0.0116444
0.0113885
0.0110466
0.0137109
0.0136603
0.0135397
0.0133509
0.0132097
0.0157041
0.0156188
0.0155043
0.0153727
0.0153061
0.0176734
0.0175442
0.0174203
0.0173171
0.0172888
0.0195393
0.0193618
0.0192178
0.0191257
0.0191159
0.0212529
0.021026
0.0208582
0.0207704
0.0207707
0.0227849
0.0225093
0.0223178
0.0222324
0.0222397
0.0241168
0.0237949
0.0235817
0.0234987
0.0235113
0.0252385
0.0248743
0.0246424
0.0245623
0.0245791
0.0261469
0.0257459
0.0254991
0.0254221
0.0254421
0.0268459
0.0264142
0.0261568
0.0260832
0.0261054
0.0273455
0.0268893
0.0266261
0.0265556
0.0265789
0.0276607
0.0271857
0.0269229
0.0268541
0.0268772
0.0278054
0.0273247
0.0270673
0.0269963
0.0270176
0.0278056
0.0273248
0.0270674
0.0269964
0.0270177
0.0276611
0.027186
0.0269233
0.0268545
0.0268776
0.0273461
0.0268899
0.0266267
0.0265562
0.0265796
0.0268468
0.0264151
0.0261577
0.0260841
0.0261063
0.026148
0.025747
0.0255002
0.0254233
0.0254433
0.0252398
0.0248757
0.0246438
0.0245636
0.0245804
0.0241184
0.0237965
0.0235832
0.0235003
0.0235129
0.0227866
0.022511
0.0223195
0.0222342
0.0222414
0.0212548
0.0210279
0.0208601
0.0207724
0.0207727
0.0195413
0.0193639
0.0192199
0.0191278
0.019118
0.0176756
0.0175464
0.0174225
0.0173193
0.017291
0.0157064
0.015621
0.0155066
0.015375
0.0153084
0.0137132
0.0136626
0.013542
0.0133532
0.013212
0.0117932
0.0117644
0.0116468
0.0113909
0.0110488
0.0101271
0.0101006
0.0100573
0.00988162
0.00890227
0.00305116
0.00359061
0.00495787
0.00595955
0.00667968
0.0072509
0.00770068
0.00804377
0.00830718
0.00849787
0.00859735
0.00866632
0.00868242
0.00864304
0.00854639
0.00838768
0.00816226
0.0078699
0.00751053
0.00708226
0.00658201
0.00609794
0.00557846
0.00503786
0.00449379
0.00395719
0.00343661
0.00294894
0.00250439
0.00199382
0.00680731
0.00753646
0.00827654
0.00863759
0.00883879
0.0089622
0.00901118
0.00899749
0.00894645
0.00885063
0.00869524
0.0085694
0.00844194
0.00831663
0.00819177
0.00805797
0.00790199
0.00771123
0.00747349
0.0071835
0.00685276
0.00641858
0.00595754
0.0054581
0.0049272
0.004375
0.00380869
0.00324466
0.002729
0.002217
0.00925501
0.00941906
0.00971208
0.00984808
0.00991216
0.00991635
0.00985039
0.00972606
0.00955998
0.00931886
0.00902537
0.00874755
0.00845509
0.00815916
0.00786568
0.00757453
0.00728218
0.00698282
0.00666983
0.00633717
0.00598169
0.00560398
0.00520452
0.00478283
0.00434239
0.00388774
0.00341885
0.00294609
0.0025522
0.00228096
0.0107304
0.0105205
0.0106448
0.0107191
0.010725
0.0106616
0.0105249
0.0103302
0.010082
0.00972439
0.00932943
0.00892192
0.00848341
0.00803035
0.00757461
0.00712441
0.00668545
0.00626056
0.00585018
0.0054523
0.00506426
0.00468877
0.00431977
0.00395335
0.00358801
0.0032226
0.00284968
0.00247134
0.00220291
0.00221604
0.011876
0.0115344
0.0115855
0.0115965
0.0115266
0.0113825
0.0111649
0.0108866
0.0105412
0.0100721
0.00957473
0.00904194
0.00847057
0.00788019
0.00728672
0.00670409
0.00614406
0.00561521
0.0051226
0.00466764
0.004249
0.0038647
0.00350986
0.00317833
0.00286488
0.00256438
0.00226334
0.00195561
0.00178317
0.00206011
0.0128907
0.0125176
0.0125103
0.0124479
0.0122984
0.012073
0.0117727
0.0114063
0.0109541
0.0103804
0.00977697
0.00912301
0.00842702
0.00771079
0.00699363
0.00629377
0.00562728
0.00500664
0.00444003
0.00393104
0.00347921
0.00308106
0.00273087
0.00242103
0.00214406
0.00189211
0.00164684
0.00139568
0.00130246
0.00181759
0.0138071
0.0134424
0.0133816
0.0132482
0.0130244
0.0127217
0.0123417
0.0118885
0.0113255
0.0106554
0.00994576
0.00917577
0.00836174
0.00752738
0.00669504
0.00588647
0.00512113
0.00441451
0.00377712
0.00321417
0.00272592
0.0023086
0.00195548
0.00165768
0.0014062
0.00119114
0.000990028
0.000785821
0.000762141
0.00148861
0.0146441
0.014313
0.0142049
0.0140042
0.0137097
0.0133316
0.0128741
0.012334
0.0116607
0.010901
0.0100854
0.00920373
0.00827716
0.00733095
0.00639015
0.00547942
0.00462096
0.00383265
0.00312687
0.00251007
0.00198313
0.00154221
0.00117984
0.000886243
0.000651234
0.000463134
0.000296188
0.000130137
0.000167549
0.00107656
0.0154222
0.0151421
0.0149914
0.0147251
0.0143611
0.0139095
0.0133748
0.0127432
0.0119674
0.0111191
0.0101986
0.00920888
0.00817424
0.00712125
0.00607737
0.0050697
0.0041227
0.00325617
0.00248397
0.00181357
0.0012463
0.000778285
0.000401595
0.000105713
-0.000120409
-0.000289914
-0.000431515
-0.000567036
-0.000475921
0.000586535
0.0161571
0.015939
0.0157488
0.0154176
0.0149848
0.0144614
0.0138484
0.013119
0.0122513
0.0113111
0.0102876
0.00919314
0.00805386
0.00689792
0.00575495
0.00465417
0.00362195
0.00267964
0.00184234
0.0011183
0.000509226
1.12261e-05
-0.00038399
-0.000687484
-0.000911084
-0.00106901
-0.00119291
-0.00130457
-0.00116573
2.33867e-05
0.0168602
0.0167112
0.0164841
0.0160876
0.0155854
0.0149911
0.0142986
0.0134681
0.0125154
0.0114806
0.0103554
0.00915833
0.00791672
0.00666045
0.0054211
0.00422975
0.0031144
0.00209776
0.00119591
0.000417765
-0.00023465
-0.000765257
-0.00118263
-0.00149827
-0.00172459
-0.00187693
-0.00198955
-0.00208299
-0.00190134
-0.000609104
0.017541
0.017466
0.0172039
0.0167412
0.0161688
0.0155038
0.0147278
0.013798
0.0127624
0.0116309
0.0104046
0.00910592
0.00776327
0.00640814
0.00507392
0.00379335
0.00259587
0.00150536
0.000538777
-0.000294415
-0.000991929
-0.0015577
-0.00200054
-0.00233233
-0.00256595
-0.00271787
-0.00282464
-0.00290474
-0.00268443
-0.00130872
0.0182085
0.0182107
0.0179153
0.0173857
0.0167433
0.0160035
0.015137
0.0141168
0.0129944
0.0117646
0.0104372
0.00903708
0.00759364
0.00614004
0.00471134
0.0033418
0.00206213
0.000897303
-0.000134969
-0.00102472
-0.00176943
-0.00237304
-0.00284458
-0.00319623
-0.00344128
-0.00359735
-0.00370317
-0.00377423
-0.00351867
-0.0020752
0.0188716
0.0189522
0.0186253
0.0180277
0.017314
0.0164968
0.0155338
0.0144289
0.0132143
0.0118845
0.0104553
0.00895278
0.00740775
0.00585498
0.00433107
0.00287169
0.00150877
0.00026823
-0.000831477
-0.00177993
-0.00257439
-0.00321881
-0.00372237
-0.00409755
-0.00435798
-0.00452247
-0.00463182
-0.0046977
-0.00440974
-0.00291051
0.0195376
0.0197004
0.019343
0.0186757
0.0178884
0.0169881
0.0159272
0.0147378
0.013426
0.0119938
0.0104607
0.00885376
0.00720525
0.00555146
0.00393048
0.00237931
0.000930999
-0.000387592
-0.00155733
-0.00256735
-0.00341469
-0.00410328
-0.00464247
-0.00504493
-0.00532471
-0.0055018
-0.00561897
-0.0056833
-0.00536544
-0.00381917
0.0202138
0.0204666
0.0200805
0.0193418
0.0184738
0.01748
0.0163273
0.0150469
0.0136331
0.0120953
0.0104551
0.00874058
0.00698548
0.00522762
0.00350652
0.00186043
0.000323511
-0.00107649
-0.00231979
-0.00339505
-0.00429908
-0.00503579
-0.00561462
-0.00604844
-0.00635171
-0.00654567
-0.00667496
-0.00674133
-0.00639586
-0.00480847
0.0209106
0.0212637
0.0208497
0.0200353
0.0190794
0.0179829
0.016741
0.015361
0.01384
0.012192
0.0104401
0.00861351
0.0067474
0.00488111
0.00305553
0.00131016
-0.000319771
-0.00180566
-0.00312704
-0.00427214
-0.0052375
-0.00602698
-0.00665011
-0.00711989
-0.00745112
-0.00766654
-0.00781252
-0.00788464
-0.00751374
-0.00588892
0.021645
0.0221054
0.021665
0.020765
0.0197103
0.0185117
0.0171741
0.0156859
0.0140512
0.012287
0.0104173
0.00847253
0.00648947
0.0045089
0.00257306
0.000722669
-0.001006
-0.00258348
-0.00398863
-0.00520921
-0.00624151
-0.00708928
-0.00776212
-0.00827315
-0.00863751
-0.00887945
-0.00904713
-0.00912914
-0.00873506
-0.0070748
0.0224392
0.0230038
0.0225386
0.0215458
0.0203786
0.0190783
0.017633
0.0160279
0.0142718
0.0123834
0.0103879
0.00831716
0.00620946
0.00410704
0.00205352
9.07926e-05
-0.00174382
-0.00341998
-0.0049159
-0.00621886
-0.00732484
-0.00823749
-0.00896645
-0.00952496
-0.00992846
-0.0102028
-0.0103978
-0.0104944
-0.0100795
-0.00838487
0.0233132
0.0239805
0.0234898
0.022392
0.0211026
0.019693
0.0181278
0.0163953
0.0145076
0.0124847
0.0103531
0.00814634
0.00590417
0.00367032
0.00148975
-0.000594442
-0.00254392
-0.0043275
-0.00592273
-0.00731639
-0.00850418
-0.00948961
-0.0102823
-0.0108956
-0.0113453
-0.0116589
-0.0118878
-0.0120047
-0.0115723
-0.00984363
0.0242948
0.0250675
0.0245414
0.0233201
0.021906
0.0203709
0.0186711
0.0167979
0.0147651
0.0125944
0.0103136
0.00795803
0.00556897
0.00319165
0.000872367
-0.0013446
-0.00341992
-0.00532159
-0.00702649
-0.00852093
-0.00980032
-0.010868
-0.0117336
-0.0124105
-0.0129148
-0.013276
-0.0135471
-0.0136908
-0.0132449
-0.011483
0.0254259
0.0262917
0.0257177
0.0243652
0.0228121
0.0211306
0.0192781
0.0172468
0.0150517
0.012716
0.0102693
0.00774872
0.00519712
0.00266125
0.000188734
-0.00217498
-0.0043896
-0.00642236
-0.00824952
-0.00985696
-0.0112398
-0.0124012
-0.0133507
-0.0141018
-0.0146711
-0.0150899
-0.0154126
-0.0155919
-0.0151381
-0.0133446
0.0267566
0.027701
0.0270635
0.0255675
0.0238488
0.0219962
0.0199681
0.0177559
0.0153758
0.0128529
0.0102189
0.00751258
0.00477861
0.00206523
-0.000578592
-0.00310634
-0.00547683
-0.00765661
-0.0096214
-0.0113567
-0.0128573
-0.0141263
-0.0151733
-0.0160116
-0.0166586
-0.0171471
-0.0175334
-0.0177595
-0.0173059
-0.0154845
0.0283601
0.0293622
0.028643
0.0269734
0.0250549
0.0229996
0.0207651
0.0183417
0.0157468
0.0130078
0.0101586
0.00723999
0.00429833
0.00138347
-0.00145438
-0.00416771
-0.00671461
-0.00906106
-0.0111824
-0.0130637
-0.0146998
-0.0160936
-0.0172546
-0.0181962
-0.0189363
-0.01951
-0.0199747
-0.0202615
-0.0198201
-0.0179785
0.0303538
0.0313744
0.0305351
0.0286459
0.0264839
0.0241834
0.0217009
0.0190252
0.0161755
0.013182
0.0100808
0.00691499
0.00373286
0.000585742
-0.00247501
-0.00540111
-0.00815015
-0.0106878
-0.0129892
-0.0150394
-0.0168329
-0.0183727
-0.0196684
-0.0207334
-0.0215863
-0.0222644
-0.0228263
-0.0231917
-0.0227798
-0.0209328
0.0328827
0.0338743
0.0328521
0.0306803
0.0282134
0.0256079
0.0228187
0.0198336
0.0166741
0.0133732
0.00997035
0.00651077
0.00304479
-0.000374827
-0.00369586
-0.00686965
-0.00985371
-0.0126138
-0.0151252
-0.0173731
-0.019352
-0.0210649
-0.0225215
-0.0237353
-0.0247254
-0.0255319
-0.0262148
-0.0266823
-0.0263264
-0.0245008
0.0362187
0.0370732
0.0357674
0.0332207
0.0303601
0.027362
0.0241801
0.0208025
0.017254
0.0135714
0.00979737
0.00598009
0.00217172
-0.00157395
-0.00520449
-0.00867164
-0.0119337
-0.0149572
-0.0177182
-0.0202022
-0.0224041
-0.0243268
-0.0259799
-0.0273767
-0.028537
-0.0295027
-0.030335
-0.0309349
-0.0306748
-0.0289196
0.0407963
0.0412995
0.0395289
0.0364649
0.0330795
0.0295595
0.0258595
0.0219698
0.0179194
0.0137502
0.00950885
0.00524652
0.00101708
-0.00312539
-0.00712939
-0.0109484
-0.0145429
-0.0178818
-0.0209426
-0.0237122
-0.0261864
-0.0283682
-0.0302667
-0.031895
-0.0332733
-0.034444
-0.0354678
-0.0362455
-0.0361551
-0.0345734
0.0475132
0.0472819
0.0447533
0.0409661
0.0368505
0.032583
0.0281299
0.0234954
0.0187204
0.0138565
0.00895798
0.00408035
-0.000721013
-0.00539323
-0.00988802
-0.0141632
-0.0181842
-0.0219241
-0.0253633
-0.0284898
-0.0313025
-0.0338122
-0.0360163
-0.0379272
-0.0395644
-0.0409669
-0.0421908
-0.043153
-0.043309
-0.0420924
0.0593206
0.0573734
0.0532333
0.0481617
0.0428286
0.0373314
0.0316642
0.0258626
0.0199856
0.0140951
0.00824993
0.00250487
-0.00309028
-0.00849197
-0.0136636
-0.0185753
-0.0232036
-0.0275309
-0.0315457
-0.0352416
-0.038611
-0.0416452
-0.0443611
-0.0467641
-0.048863
-0.0506826
-0.0522695
-0.0536089
-0.0543648
-0.0539035
0.00656909
0.00756372
0.00932859
0.010746
0.0119488
0.0130762
0.0141595
0.0152068
0.0162278
0.0172319
0.0182277
0.0192236
0.0202287
0.0212525
0.0223048
0.0233975
0.024545
0.0257652
0.0270787
0.0285092
0.030088
0.031857
0.0338686
0.0361939
0.0389301
0.0422223
0.046267
0.0513108
0.0575668
0.0657582
0.0109268
0.0119542
0.0131232
0.0141092
0.0149995
0.0158543
0.0166852
0.0174964
0.0182953
0.0190901
0.0198887
0.0206993
0.0215304
0.0223913
0.0232921
0.024245
0.0252646
0.0263686
0.0275786
0.0289211
0.0304308
0.0321539
0.034151
0.036506
0.0393366
0.0428164
0.0471949
0.05283
0.0602083
0.0701056
0.0133421
0.0142608
0.015155
0.0159603
0.0167458
0.0175287
0.0183063
0.01908
0.0198547
0.0206365
0.0214317
0.0222473
0.0230909
0.0239712
0.024898
0.0258836
0.0269425
0.028093
0.0293574
0.0307645
0.0323514
0.034168
0.0362809
0.0387829
0.0418055
0.0455392
0.0502659
0.0563995
0.0645924
0.0757151
0.0154613
0.0162706
0.0170497
0.0177745
0.0184952
0.0192223
0.0199554
0.0206976
0.021454
0.0222305
0.023033
0.0238683
0.0247437
0.0256678
0.026651
0.0277054
0.0288463
0.0300925
0.0314676
0.0330019
0.034735
0.0367196
0.0390268
0.0417549
0.0450431
0.0490915
0.0541959
0.0607845
0.0695989
0.0815453
0.01744
0.0181551
0.0188434
0.0194961
0.0201558
0.0208333
0.0215296
0.0222478
0.0229925
0.0237687
0.024582
0.0254389
0.0263466
0.0273139
0.0283514
0.0294718
0.030691
0.0320286
0.0335098
0.0351664
0.0370403
0.0391871
0.0416813
0.0446261
0.0481662
0.0525087
0.057959
0.0649539
0.0743172
0.087005
0.0192484
0.0198794
0.0204901
0.0210819
0.0216934
0.0223339
0.0230045
0.0237076
0.0244474
0.0252285
0.026056
0.0269361
0.0278763
0.0288851
0.0299735
0.0311546
0.0324447
0.0338643
0.0354396
0.037204
0.0392011
0.0414887
0.0441447
0.0472757
0.051031
0.0556243
0.0613695
0.0687153
0.0785658
0.0919557
0.0208818
0.0214374
0.021982
0.0225239
0.0230974
0.0237102
0.0243627
0.0250571
0.025797
0.0265866
0.0274308
0.0283356
0.0293082
0.0303575
0.0314942
0.0327319
0.0340873
0.0355816
0.0372418
0.0391023
0.0412083
0.0436193
0.0464155
0.0497065
0.0536455
0.0584512
0.0644459
0.0720905
0.0823553
0.0963682
0.0223344
0.022822
0.0233098
0.0238109
0.0243546
0.0249464
0.0255865
0.0262766
0.0270199
0.0278201
0.028682
0.0296111
0.0306148
0.0317018
0.032883
0.0341723
0.0355866
0.0371478
0.0388834
0.0408287
0.0430301
0.0455485
0.0484658
0.0518939
0.055989
0.0609742
0.0671788
0.0750749
0.0856797
0.100216
0.0235972
0.0240239
0.0244635
0.0249316
0.0254519
0.0260283
0.0266602
0.027349
0.0280975
0.028909
0.029788
0.0307399
0.0317719
0.0328927
0.0341135
0.0354481
0.036914
0.0385331
0.0403337
0.0423519
0.0446346
0.0472441
0.0502635
0.0538066
0.058032
0.0631661
0.0695442
0.0776479
0.0885244
0.103485
0.0246632
0.0250364
0.0254359
0.025878
0.0263806
0.0269457
0.0275724
0.0282619
0.0290162
0.0298386
0.0307331
0.0317053
0.0327619
0.033912
0.0351665
0.0365396
0.0380488
0.0397166
0.0415714
0.04365
0.046
0.0486845
0.0517876
0.0554244
0.0597556
0.06501
0.0715279
0.0797985
0.0908829
0.106184
0.0255295
0.0258574
0.0262248
0.026647
0.0271365
0.0276936
0.0283172
0.0290082
0.0297683
0.0306003
0.0315082
0.0324974
0.0335746
0.0347486
0.0360308
0.0374352
0.0389796
0.0406866
0.042585
0.044712
0.0471157
0.0498596
0.0530289
0.0567398
0.0611541
0.0665025
0.0731294
0.0815296
0.0927658
0.108338
0.0261988
0.0264902
0.0268332
0.0272408
0.0277209
0.0282725
0.0288944
0.0295871
0.0303522
0.0311921
0.0321108
0.0331134
0.0342068
0.0353996
0.0367032
0.0381318
0.0397033
0.0414404
0.0433722
0.0455361
0.0479806
0.0507698
0.0539892
0.0577559
0.0622326
0.0676515
0.0743599
0.0828564
0.0941975
0.109979
0.0266787
0.026943
0.0272687
0.0276663
0.0281401
0.0286881
0.0293092
0.0300035
0.0307724
0.0316184
0.032545
0.0335574
0.0346625
0.035869
0.0371881
0.038634
0.0402249
0.0419836
0.0439392
0.0461294
0.048603
0.0514242
0.0546792
0.0584852
0.063006
0.0684742
0.07524
0.0838032
0.0952116
0.111147
0.0269819
0.0272286
0.0275434
0.0279349
0.0284048
0.0289508
0.0295715
0.030267
0.0310386
0.0318885
0.0328203
0.0338391
0.0349517
0.0361669
0.0374958
0.0389529
0.0405562
0.0423285
0.0442993
0.0465062
0.0489981
0.0518396
0.055117
0.0589479
0.0634964
0.0689955
0.0757974
0.0844015
0.0958445
0.111892
0.0271244
0.0273625
0.0276722
0.0280609
0.0285291
0.0290742
0.0296948
0.030391
0.0311638
0.0320156
0.03295
0.0339719
0.0350881
0.0363075
0.0376412
0.0391036
0.0407128
0.0424917
0.0444697
0.0466846
0.0491853
0.0520365
0.0553246
0.0591673
0.063729
0.0692429
0.076062
0.0846849
0.0961378
0.112252
0.0271246
0.0273627
0.0276723
0.028061
0.0285292
0.0290743
0.0296949
0.0303911
0.031164
0.0320158
0.0329501
0.033972
0.0350882
0.0363076
0.0376413
0.0391037
0.0407128
0.0424918
0.0444698
0.0466846
0.0491853
0.0520365
0.0553246
0.0591674
0.0637291
0.0692429
0.076062
0.0846849
0.0961379
0.112252
0.0269823
0.027229
0.0275438
0.0279353
0.0284052
0.0289512
0.0295719
0.0302674
0.0310389
0.0318888
0.0328206
0.0338394
0.034952
0.0361671
0.0374961
0.0389532
0.0405564
0.0423287
0.0442995
0.0465064
0.0489983
0.0518398
0.0551172
0.0589481
0.0634966
0.0689957
0.0757974
0.0844015
0.0958446
0.111892
0.0266794
0.0269437
0.0272694
0.027667
0.0281407
0.0286887
0.0293098
0.0300041
0.030773
0.0316189
0.0325455
0.033558
0.034663
0.0358694
0.0371885
0.0386344
0.0402253
0.0419839
0.0439396
0.0461298
0.0486033
0.0514245
0.0546795
0.0584855
0.0630063
0.0684745
0.0752402
0.0838033
0.0952118
0.111148
0.0261997
0.0264911
0.0268341
0.0272417
0.0277218
0.0282733
0.0288953
0.029588
0.030353
0.0311929
0.0321116
0.0331141
0.0342074
0.0354003
0.0367038
0.0381324
0.0397038
0.0414409
0.0433727
0.0455366
0.0479811
0.0507702
0.0539897
0.0577563
0.0622331
0.0676519
0.0743602
0.0828566
0.0941979
0.109979
0.0255307
0.0258586
0.026226
0.0266481
0.0271376
0.0276947
0.0283183
0.0290092
0.0297693
0.0306013
0.0315092
0.0324982
0.0335754
0.0347495
0.0360316
0.0374359
0.0389802
0.0406872
0.0425856
0.0447126
0.0471162
0.0498602
0.0530295
0.0567403
0.0611546
0.066503
0.0731299
0.0815301
0.0927662
0.108338
0.0246646
0.0250378
0.0254373
0.0258793
0.0263819
0.026947
0.0275737
0.0282631
0.0290174
0.0298398
0.0307343
0.0317063
0.0327629
0.0339129
0.0351674
0.0365404
0.0380496
0.0397174
0.0415722
0.0436507
0.0460007
0.0486851
0.0517882
0.055425
0.0597562
0.0650107
0.0715287
0.0797991
0.0908836
0.106184
0.0235988
0.0240256
0.024465
0.0249331
0.0254535
0.0260298
0.0266616
0.0273505
0.0280989
0.0289104
0.0297893
0.0307411
0.031773
0.0328938
0.0341146
0.0354491
0.0369149
0.0385341
0.0403346
0.0423527
0.0446354
0.0472448
0.0502642
0.0538072
0.0580327
0.063167
0.0695453
0.0776488
0.0885252
0.103486
0.0223362
0.0228239
0.0233116
0.0238127
0.0243563
0.0249481
0.0255881
0.0262782
0.0270214
0.0278216
0.0286834
0.0296125
0.0306161
0.031703
0.0328842
0.0341734
0.0355877
0.0371489
0.0388844
0.0408297
0.043031
0.0455494
0.0484665
0.0518946
0.0559899
0.0609754
0.0671802
0.0750761
0.0856806
0.100217
0.0208838
0.0214394
0.0219839
0.0225258
0.0230993
0.023712
0.0243645
0.0250589
0.0257987
0.0265883
0.0274324
0.0283371
0.0293097
0.0303588
0.0314955
0.0327331
0.0340885
0.0355828
0.0372429
0.0391034
0.0412093
0.0436203
0.0464164
0.0497073
0.0536465
0.0584527
0.0644476
0.072092
0.0823561
0.0963684
0.0192505
0.0198815
0.0204922
0.021084
0.0216954
0.0223359
0.0230064
0.0237095
0.0244493
0.0252302
0.0260577
0.0269378
0.0278778
0.0288866
0.029975
0.031156
0.032446
0.0338656
0.0354409
0.0372052
0.0392022
0.0414898
0.0441456
0.0472766
0.0510322
0.055626
0.0613715
0.068717
0.0785666
0.0919558
0.0174422
0.0181573
0.0188456
0.0194983
0.0201579
0.0208354
0.0215317
0.0222498
0.0229944
0.0237706
0.0245839
0.0254406
0.0263483
0.0273155
0.0283529
0.0294733
0.0306924
0.0320301
0.0335112
0.0351677
0.0370416
0.0391882
0.0416824
0.0446273
0.0481676
0.0525107
0.0579612
0.0649557
0.0743179
0.0870048
0.0154635
0.0162729
0.017052
0.0177768
0.0184974
0.0192245
0.0199576
0.0206997
0.0214561
0.0222325
0.023035
0.0238702
0.0247455
0.0256696
0.0266526
0.027707
0.0288479
0.030094
0.0314691
0.0330033
0.0347364
0.0367209
0.039028
0.0417563
0.0450447
0.0490936
0.0541982
0.0607863
0.0695995
0.0815449
0.0133443
0.0142631
0.0151573
0.0159626
0.0167481
0.0175309
0.0183086
0.0190822
0.0198568
0.0206386
0.0214338
0.0222493
0.0230929
0.023973
0.0248998
0.0258853
0.0269442
0.0280946
0.029359
0.030766
0.0323529
0.0341694
0.0362823
0.0387845
0.0418073
0.0455414
0.0502681
0.0564009
0.0645928
0.0757146
0.0109291
0.0119566
0.0131256
0.0141116
0.0150018
0.0158566
0.0166875
0.0174987
0.0182975
0.0190923
0.0198908
0.0207014
0.0215325
0.0223933
0.023294
0.0242469
0.0252663
0.0263703
0.0275802
0.0289227
0.0304324
0.0321554
0.0341526
0.0365078
0.0393385
0.0428185
0.0471967
0.0528309
0.0602084
0.0701051
0.00657139
0.00756614
0.00933099
0.0107483
0.0119511
0.0130785
0.0141617
0.015209
0.01623
0.017234
0.0182297
0.0192256
0.0202307
0.0212544
0.0223067
0.0233993
0.0245467
0.0257668
0.0270802
0.0285107
0.0300894
0.0318585
0.0338701
0.0361957
0.0389321
0.042224
0.0462683
0.0513111
0.0575666
0.0657578
0.0593204
0.0573734
0.0532331
0.0481613
0.0428282
0.037331
0.0316638
0.0258621
0.0199849
0.0140942
0.0082487
0.00250333
-0.00309211
-0.0084941
-0.0136659
-0.0185779
-0.0232065
-0.0275338
-0.0315488
-0.0352448
-0.0386143
-0.0416485
-0.0443644
-0.0467673
-0.0488662
-0.0506858
-0.0522727
-0.0536121
-0.0543682
-0.0539071
0.0475127
0.0472813
0.0447528
0.0409658
0.0368502
0.0325827
0.0281295
0.0234947
0.0187195
0.0138554
0.00895658
0.00407869
-0.000722915
-0.00539537
-0.00989038
-0.0141658
-0.0181869
-0.021927
-0.0253664
-0.028493
-0.0313058
-0.0338156
-0.0360197
-0.0379306
-0.0395677
-0.0409702
-0.0421941
-0.0431562
-0.0433121
-0.0420954
0.0407963
0.0412996
0.0395291
0.0364652
0.0330797
0.0295594
0.0258592
0.0219691
0.0179185
0.013749
0.00950738
0.00524483
0.00101518
-0.0031275
-0.00713169
-0.0109509
-0.0145456
-0.0178846
-0.0209457
-0.0237155
-0.0261898
-0.0283717
-0.0302703
-0.0318987
-0.033277
-0.0344476
-0.0354713
-0.0362488
-0.0361582
-0.0345763
0.0362194
0.037074
0.035768
0.0332211
0.0303602
0.0273616
0.0241794
0.0208016
0.0172527
0.0135699
0.00979573
0.00597829
0.00216978
-0.00157604
-0.00520674
-0.00867407
-0.0119363
-0.01496
-0.0177212
-0.0202055
-0.0224076
-0.0243306
-0.0259838
-0.0273807
-0.0285411
-0.0295068
-0.0303389
-0.0309385
-0.0306781
-0.0289224
0.0328839
0.0338754
0.0328528
0.0306805
0.0282131
0.0256072
0.0228177
0.0198322
0.0166725
0.0133715
0.00996851
0.00650883
0.00304277
-0.00037694
-0.0036981
-0.00687203
-0.00985628
-0.0126166
-0.0151283
-0.0173764
-0.0193555
-0.0210688
-0.0225256
-0.0237395
-0.0247298
-0.0255363
-0.026219
-0.0266863
-0.02633
-0.0245038
0.0303554
0.0313755
0.0305356
0.0286458
0.0264833
0.0241824
0.0216995
0.0190235
0.0161737
0.01318
0.0100788
0.00691293
0.00373076
0.000583587
-0.00247725
-0.00540347
-0.00815268
-0.0106905
-0.0129922
-0.0150426
-0.0168364
-0.0183765
-0.0196724
-0.0207376
-0.0215905
-0.0222688
-0.0228306
-0.0231959
-0.0227837
-0.0209363
0.0283616
0.0293632
0.0286433
0.0269733
0.0250541
0.0229984
0.0207636
0.0183399
0.0157449
0.0130058
0.0101565
0.00723785
0.00429618
0.00138128
-0.00145663
-0.00417005
-0.00671709
-0.00906372
-0.0111852
-0.0130668
-0.0147031
-0.0160971
-0.0172583
-0.0182001
-0.0189404
-0.0195142
-0.019979
-0.0202657
-0.0198242
-0.0179823
0.0267578
0.0277018
0.0270638
0.0255673
0.0238481
0.0219951
0.0199666
0.0177542
0.0153739
0.0128508
0.0102168
0.00751044
0.00477645
0.00206306
-0.000580804
-0.00310863
-0.00547924
-0.00765916
-0.00962412
-0.0113596
-0.0128604
-0.0141296
-0.0151768
-0.0160153
-0.0166624
-0.0171511
-0.0175374
-0.0177636
-0.01731
-0.0154886
0.0254271
0.0262926
0.0257183
0.0243652
0.0228115
0.0211296
0.0192768
0.0172452
0.0150499
0.012714
0.0102673
0.00774662
0.00519501
0.00265913
0.000186592
-0.00217718
-0.00439189
-0.00642477
-0.00825207
-0.00985967
-0.0112426
-0.0124042
-0.0133539
-0.0141052
-0.0146746
-0.0150936
-0.0154164
-0.0155959
-0.0151422
-0.0133488
0.024296
0.0250684
0.024542
0.0233202
0.0219056
0.0203701
0.0186699
0.0167964
0.0147634
0.0125925
0.0103116
0.00795601
0.00556695
0.00318963
0.00087033
-0.00134668
-0.00342206
-0.00532382
-0.00702884
-0.00852342
-0.00980294
-0.0108708
-0.0117366
-0.0124136
-0.0129181
-0.0132795
-0.0135507
-0.0136947
-0.0132489
-0.0114871
0.0233144
0.0239816
0.0234905
0.0223922
0.0211025
0.0196924
0.0181268
0.016394
0.014506
0.0124829
0.0103512
0.00814443
0.00590226
0.00366842
0.00148784
-0.000596375
-0.0025459
-0.00432956
-0.00592488
-0.00731866
-0.00850658
-0.00949216
-0.010285
-0.0108985
-0.0113484
-0.0116623
-0.0118913
-0.0120084
-0.0115762
-0.00984764
0.0224406
0.0230049
0.0225394
0.0215462
0.0203785
0.0190778
0.0176321
0.0160267
0.0142703
0.0123818
0.0103861
0.00831538
0.00620768
0.00410528
0.00205175
8.90048e-05
-0.00174564
-0.00342187
-0.00491787
-0.00622093
-0.00732703
-0.00823984
-0.00896898
-0.00952769
-0.00993139
-0.0102059
-0.0104012
-0.010498
-0.0100834
-0.00838878
0.0216464
0.0221067
0.0216659
0.0207655
0.0197104
0.0185114
0.0171734
0.0156849
0.0140499
0.0122855
0.0104157
0.0084709
0.00648784
0.00450728
0.00257144
0.000721024
-0.00100769
-0.00258522
-0.00399044
-0.00521112
-0.00624354
-0.00709146
-0.00776449
-0.00827574
-0.00864032
-0.00888252
-0.00905044
-0.00913269
-0.00873879
-0.00707862
0.0209121
0.0212651
0.0208507
0.0200359
0.0190795
0.0179827
0.0167404
0.0153601
0.0138388
0.0121907
0.0104387
0.00861205
0.00674594
0.00487964
0.00305405
0.00130865
-0.000321329
-0.00180728
-0.00312873
-0.00427392
-0.0052394
-0.00602904
-0.00665236
-0.00712238
-0.00745386
-0.00766954
-0.00781576
-0.00788808
-0.00751735
-0.00589262
0.0202155
0.0204681
0.0200816
0.0193425
0.0184741
0.0174799
0.0163269
0.0150462
0.0136322
0.0120941
0.0104538
0.0087393
0.00698418
0.0052263
0.00350516
0.00185903
0.000322061
-0.00107801
-0.00232138
-0.00339673
-0.0043009
-0.00503777
-0.00561681
-0.00605086
-0.00635438
-0.0065486
-0.00667813
-0.00674471
-0.0063994
-0.00481206
0.0195393
0.019702
0.0193442
0.0186766
0.0178889
0.0169881
0.0159269
0.0147372
0.0134252
0.0119928
0.0104596
0.00885267
0.00720411
0.00555027
0.00392924
0.00237801
0.000929635
-0.000389031
-0.00155886
-0.00256898
-0.00341646
-0.00410522
-0.00464461
-0.0050473
-0.00532734
-0.00550467
-0.00562209
-0.00568662
-0.00536891
-0.00382266
0.0188735
0.0189539
0.0186267
0.0180287
0.0173146
0.0164971
0.0155337
0.0144286
0.0132138
0.0118838
0.0104545
0.00895187
0.00740677
0.00585392
0.00432994
0.00287048
0.00150748
0.000266847
-0.000832962
-0.00178153
-0.00257614
-0.00322073
-0.0037245
-0.00409991
-0.00436059
-0.00452533
-0.00463491
-0.00470098
-0.00441315
-0.00291392
0.0182104
0.0182125
0.0179167
0.0173868
0.0167441
0.016004
0.0151372
0.0141167
0.0129941
0.0117641
0.0104366
0.00903636
0.00759281
0.00613911
0.00471031
0.00334067
0.0020609
0.000895955
-0.000136436
-0.00102632
-0.00177119
-0.00237499
-0.00284673
-0.0031986
-0.0034439
-0.0036002
-0.00370625
-0.00377749
-0.00352204
-0.00207854
0.017543
0.0174679
0.0172055
0.0167425
0.0161698
0.0155045
0.0147283
0.0137982
0.0127623
0.0116307
0.0104042
0.00910538
0.00776259
0.00640733
0.00507299
0.00379229
0.00259467
0.00150403
0.00053731
-0.000296033
-0.000993716
-0.00155968
-0.00200273
-0.00233474
-0.00256858
-0.00272073
-0.00282771
-0.00290797
-0.00268777
-0.00131202
0.0168622
0.0167132
0.0164859
0.0160891
0.0155866
0.014992
0.0142993
0.0134685
0.0125156
0.0114806
0.0103552
0.00915797
0.0079162
0.00665977
0.00542026
0.00422875
0.00311324
0.00209644
0.00119443
0.000416114
-0.00023648
-0.000767283
-0.00118486
-0.00150072
-0.00172725
-0.00187979
-0.00199261
-0.00208622
-0.00190465
-0.000612379
0.0161592
0.015941
0.0157506
0.0154192
0.0149863
0.0144626
0.0138493
0.0131196
0.0122517
0.0113113
0.0102876
0.00919294
0.00805348
0.00689736
0.00575419
0.00465323
0.00362081
0.00267832
0.00184084
0.0011166
0.000507341
9.14262e-06
-0.00038628
-0.000689994
-0.000913775
-0.00107187
-0.00119594
-0.00130778
-0.00116902
2.01224e-05
0.0154244
0.0151442
0.0149934
0.0147268
0.0143627
0.0139108
0.0133758
0.012744
0.011968
0.0111195
0.0101988
0.00920885
0.008174
0.0071208
0.00607669
0.0050688
0.00412159
0.00325484
0.00248243
0.00181182
0.00124435
0.000776137
0.000399247
0.000103163
-0.000123145
-0.000292839
-0.00043458
-0.00057024
-0.0004792
0.000583282
0.0146463
0.0143152
0.0142069
0.014006
0.0137113
0.0133331
0.0128754
0.012335
0.0116615
0.0109016
0.0100858
0.00920387
0.00827706
0.00733061
0.00638956
0.00547857
0.00461986
0.0038313
0.00312529
0.00250827
0.00198112
0.00154
0.00117744
0.000883655
0.000648461
0.000460197
0.000293087
0.000126938
0.00016431
0.00107333
0.0138093
0.0134446
0.0133837
0.0132502
0.0130262
0.0127233
0.0123432
0.0118897
0.0113265
0.0106562
0.00994631
0.00917606
0.00836177
0.00752714
0.00669452
0.00588566
0.00512004
0.00441315
0.0037755
0.00321231
0.00272384
0.00230633
0.00195301
0.00165505
0.00140339
0.00118821
0.000986996
0.000782732
0.000758943
0.00148539
0.012893
0.0125198
0.0125125
0.01245
0.0123004
0.0120747
0.0117743
0.0114077
0.0109553
0.0103814
0.00977768
0.00912346
0.00842718
0.00771065
0.00699317
0.00629299
0.00562619
0.00500526
0.00443837
0.00392913
0.00347707
0.00307872
0.00272835
0.00241835
0.00214124
0.00188917
0.00164381
0.00139254
0.00129928
0.00181442
0.0118783
0.0115367
0.0115877
0.0115986
0.0115286
0.0113844
0.0111667
0.0108882
0.0105425
0.0100732
0.0095756
0.00904253
0.00847085
0.00788014
0.00728633
0.00670335
0.00614298
0.0056138
0.0051209
0.00466567
0.00424681
0.00386231
0.00350729
0.00317561
0.00286204
0.00256145
0.00226034
0.00195253
0.00178012
0.00205701
0.0107327
0.0105228
0.0106471
0.0107213
0.0107271
0.0106636
0.0105268
0.0103319
0.0100835
0.00972565
0.00933044
0.00892263
0.00848379
0.00803038
0.00757426
0.00712369
0.00668437
0.00625914
0.00584845
0.00545029
0.00506203
0.00468634
0.00431717
0.00395062
0.00358517
0.00321967
0.00284667
0.00246835
0.00219991
0.00221303
0.00925744
0.00942139
0.00971438
0.00985037
0.00991439
0.00991848
0.00985239
0.00972789
0.00956162
0.00932026
0.0090265
0.00874837
0.00845556
0.00815926
0.00786539
0.00757385
0.00728111
0.0069814
0.00666807
0.00633513
0.00597942
0.00560152
0.0052019
0.00478009
0.00433956
0.00388483
0.00341589
0.00294313
0.00254924
0.00227807
0.00680977
0.00753884
0.00827892
0.00863995
0.00884111
0.0089644
0.00901322
0.00899943
0.00894826
0.00885223
0.00869657
0.00857041
0.00844256