/*--------------------------------*- C++ -*----------------------------------*\
  =========                 |
  \\      /  F ield         | OpenFOAM: The Open Source CFD Toolbox
   \\    /   O peration     | Website:  https://openfoam.org
    \\  /    A nd           | Version:  12
     \\/     M anipulation  |
\*---------------------------------------------------------------------------*/
FoamFile
{
    format      ascii;
    class       volScalarField;
    location    "300";
    object      pPrime2Mean;
}
// * * * * * * * * * * * * * * * * * * * * * * * * * * * * * * * * * * * * * //

dimensions      [0 4 -4 0 0 0 0];

internalField   nonuniform List<scalar> 
6750
(
0.00437407
0.0043677
0.00435962
0.00435247
0.00434449
0.00437562
0.00436672
0.00435277
0.00433621
0.00431883
0.00439613
0.0043851
0.00436701
0.00434386
0.00431898
0.00443472
0.00442297
0.0044035
0.00437816
0.00435101
0.00448902
0.00447826
0.00446036
0.00443681
0.00441158
0.00455521
0.00454692
0.00453303
0.00451437
0.00449429
0.00462839
0.00462372
0.00461567
0.00460419
0.00459172
0.00470343
0.00470311
0.00470208
0.00469931
0.00469614
0.00477554
0.00477989
0.00478639
0.00479305
0.00480007
0.00484069
0.00484961
0.00486356
0.00487958
0.00489682
0.00489581
0.00490892
0.00492966
0.00495428
0.00498102
0.00493896
0.00495558
0.00498202
0.00501391
0.00504875
0.0049692
0.00498848
0.00501924
0.00505667
0.00509775
0.0049865
0.00500751
0.00504105
0.00508208
0.00512726
0.00499155
0.00501334
0.00504812
0.0050908
0.00513787
0.00498553
0.0050072
0.00504181
0.00508429
0.00513114
0.00496842
0.00498908
0.00502209
0.00506252
0.00510703
0.00493916
0.00495786
0.00498775
0.00502417
0.00506413
0.00489724
0.00491308
0.00493834
0.00496886
0.00500218
0.00484288
0.00485505
0.00487435
0.0048973
0.00492218
0.00477717
0.00478505
0.00479738
0.00481151
0.00482666
0.00470224
0.00470547
0.00471027
0.00471492
0.00471972
0.00462128
0.00461983
0.00461706
0.00461227
0.00460686
0.00453844
0.00453266
0.0045229
0.00450945
0.00449478
0.00445857
0.00444922
0.0044337
0.00441315
0.00439098
0.00438688
0.0043751
0.00435565
0.00433032
0.00430316
0.00432825
0.00431555
0.00429464
0.00426765
0.00423872
0.00428657
0.00427466
0.00425521
0.0042305
0.00420399
0.00426419
0.00425449
0.00423929
0.00422127
0.00420239
0.0042619
0.00425486
0.00424578
0.00423748
0.00422849
0.00431618
0.0042834
0.00422073
0.00413181
0.00401825
0.00388123
0.00372122
0.00353864
0.00333527
0.00311382
0.00287676
0.00263004
0.00237893
0.00212955
0.00188805
0.00165993
0.00144961
0.00126011
0.00109286
0.000947704
0.00082325
0.000719284
0.000632359
0.00056017
0.000500615
0.000451683
0.000411703
0.000379115
0.000352803
0.000335966
0.00432153
0.00426712
0.00418675
0.0040831
0.00395716
0.00380973
0.00364179
0.00345484
0.0032513
0.00303391
0.00280467
0.00256966
0.0023329
0.00209935
0.00187383
0.00166058
0.00146301
0.00128348
0.00112327
0.000982755
0.000861637
0.000757247
0.000669266
0.000595462
0.000533923
0.000483006
0.000441166
0.000406813
0.000378222
0.000356026
0.00430674
0.00423485
0.00414055
0.00402639
0.0038922
0.0037387
0.00356701
0.00337891
0.00317715
0.00296403
0.00274239
0.00251763
0.00229304
0.00207274
0.00186053
0.00165969
0.00147285
0.00130186
0.00114782
0.00101103
0.000891206
0.000787561
0.000698902
0.000623719
0.00056046
0.000507632
0.000463809
0.000427502
0.000397501
0.000374463
0.00428196
0.0041986
0.00409444
0.00397289
0.00383381
0.00367742
0.00350473
0.00331768
0.00311897
0.00291023
0.00269548
0.00247893
0.00226358
0.00205301
0.00185043
0.00165858
0.00147962
0.00131513
0.00116603
0.00103267
0.000914865
0.000812121
0.00072344
0.000647603
0.000583278
0.000529065
0.000483479
0.000445119
0.000413293
0.000390929
0.00425396
0.00416261
0.00405105
0.00392386
0.00378158
0.00362395
0.00345186
0.00326708
0.00307201
0.00286792
0.00265936
0.00244952
0.00224133
0.00203806
0.00184258
0.00165737
0.00148438
0.00132503
0.00118017
0.0010501
0.000934675
0.000833383
0.000745383
0.000669592
0.000604786
0.000549627
0.000502628
0.000462288
0.000428814
0.000407068
0.00422715
0.00412975
0.00401267
0.00388118
0.00373655
0.00357869
0.003408
0.00322604
0.00303467
0.00283515
0.00263188
0.00242743
0.00222471
0.00202679
0.00183644
0.00165604
0.00148751
0.00133221
0.00119093
0.00106392
0.000950971
0.000851509
0.00076468
0.000689426
0.000624556
0.000568804
0.000520671
0.000478734
0.000443906
0.000422878
0.00420424
0.00410217
0.00398078
0.00384613
0.00369984
0.00354217
0.00337323
0.00319418
0.00300618
0.00281081
0.00261188
0.00241159
0.00221285
0.00201865
0.00183179
0.0016547
0.00148934
0.00133711
0.00119876
0.00107447
0.00096394
0.000866457
0.000781069
0.000706656
0.000642024
0.000585962
0.000537019
0.00049387
0.000457987
0.00043778
0.00418749
0.00408172
0.00395686
0.00381969
0.00367242
0.003515
0.00334781
0.00317141
0.00298621
0.00279437
0.00259871
0.00240136
0.00220522
0.00201331
0.0018285
0.00165341
0.0014901
0.00134003
0.00120397
0.00108202
0.000973716
0.000878212
0.000794391
0.000721025
0.000656901
0.000600736
0.000551274
0.000507314
0.000470646
0.00045123
0.00417891
0.00407011
0.00394219
0.0038028
0.00365478
0.00349768
0.00333198
0.00315769
0.0029747
0.00278548
0.00259195
0.00239631
0.00220147
0.0020105
0.00182649
0.00165221
0.00148993
0.00134119
0.00120677
0.00108669
0.00098037
0.000886751
0.000804541
0.000732375
0.000668987
0.000613037
0.000563365
0.000518819
0.000481564
0.00046279
0.0041805
0.00406903
0.00393812
0.0037965
0.00364764
0.00349087
0.00332613
0.00315314
0.0029717
0.002784
0.00259143
0.00239625
0.00220139
0.0020101
0.00182566
0.00165111
0.00148889
0.00134068
0.00120725
0.00108858
0.000983922
0.000892033
0.000811428
0.000740589
0.000678095
0.000622673
0.00057306
0.000528124
0.000490422
0.000472079
0.00419431
0.00408021
0.00394606
0.00380182
0.00365174
0.00349496
0.00333067
0.0031581
0.00297738
0.00278999
0.00259714
0.0024011
0.00220491
0.00201203
0.00182599
0.00165011
0.00148703
0.00133854
0.00120547
0.0010877
0.000984357
0.000894009
0.00081497
0.000745541
0.000684156
0.00062949
0.000580125
0.000534965
0.000496928
0.000478774
0.00422257
0.00410555
0.00396762
0.00382008
0.00366816
0.0035108
0.00334616
0.00317311
0.00299206
0.00280371
0.00260922
0.00241096
0.00221208
0.0020163
0.00182748
0.0016492
0.00148433
0.00133478
0.00120141
0.00108403
0.000981639
0.000892624
0.000815096
0.000747153
0.000687024
0.000633314
0.000584321
0.000539079
0.000500829
0.00048263
0.00426789
0.00414731
0.00400481
0.00385307
0.00369857
0.00353945
0.00337341
0.00319895
0.00301629
0.00282555
0.00262799
0.00242602
0.002223
0.00202297
0.00183014
0.00164837
0.00148076
0.00132934
0.00119501
0.00107752
0.000975716
0.00088782
0.000811732
0.000745307
0.000686528
0.000633805
0.00058539
0.00054024
0.000501934
0.000483491
0.0043334
0.00420821
0.00406008
0.00390289
0.00374454
0.00358245
0.00341374
0.00323664
0.00305084
0.00285617
0.0026539
0.00244659
0.00223788
0.00203216
0.00183401
0.00164761
0.00147627
0.00132216
0.00118619
0.00106808
0.000966526
0.000879545
0.000804802
0.00073987
0.00068253
0.000630884
0.000583169
0.000538315
0.000500157
0.000481322
0.00442287
0.0042917
0.00413654
0.00397229
0.0038086
0.00364197
0.0034689
0.00328762
0.00309688
0.00289642
0.00268757
0.0024731
0.00225698
0.00204401
0.00183917
0.00164693
0.00147081
0.00131314
0.00117486
0.00105563
0.000953984
0.000867715
0.000794207
0.000730758
0.000674871
0.000624404
0.000577579
0.000533285
0.000495557
0.000476276
0.00454106
0.00440226
0.0042384
0.00406517
0.00389418
0.0037209
0.00354155
0.0033539
0.00315594
0.00294744
0.00272981
0.00250607
0.00228063
0.00205872
0.00184568
0.00164629
0.00146431
0.00130219
0.0011609
0.00104004
0.000937963
0.000852183
0.000779789
0.000717813
0.000663432
0.00061431
0.00056865
0.000525289
0.000488398
0.000468789
0.00469423
0.00454582
0.00437134
0.00418667
0.00400589
0.00382333
0.00363517
0.00343815
0.00323006
0.00301069
0.0027816
0.00254617
0.00230925
0.0020765
0.00185361
0.00164567
0.00145669
0.00128922
0.00114424
0.00102121
0.000918313
0.000832774
0.000761368
0.000700843
0.000648149
0.00060067
0.000556602
0.000514732
0.000479293
0.000459729
0.00489079
0.00473043
0.00454296
0.00434359
0.00414973
0.00395458
0.00375391
0.00354371
0.00332178
0.00308798
0.00284417
0.00259418
0.00234329
0.00209755
0.001863
0.00164503
0.00144786
0.00127413
0.00112475
0.000999028
0.000894906
0.00080936
0.000738867
0.000679869
0.0006291
0.000583774
0.000541978
0.00050247
0.000469441
0.000450679
0.00514234
0.00496686
0.00476325
0.00454484
0.00433355
0.00412128
0.00390306
0.00367474
0.00343422
0.00318156
0.00291907
0.00265105
0.00238324
0.00212205
0.00187386
0.00164431
0.00143774
0.0012568
0.0011023
0.000973344
0.000867649
0.000781931
0.000712392
0.000655166
0.000606786
0.000564374
0.000525951
0.000490186
0.000461036
0.000444369
0.00546489
0.00526979
0.00504565
0.0048022
0.00456745
0.00433156
0.00408929
0.0038364
0.00357119
0.00329411
0.00300804
0.00271779
0.00242958
0.00215017
0.0018862
0.00164345
0.00142626
0.00123716
0.00107681
0.00094411
0.000836572
0.000750688
0.000682395
0.000627557
0.000582494
0.000544231
0.00051088
0.000481066
0.000458056
0.000445531
0.00588079
0.00565972
0.00540871
0.00513172
0.00486463
0.00459623
0.00432103
0.00403514
0.00373734
0.00342877
0.00311301
0.00279549
0.00248283
0.0021821
0.00190004
0.00164239
0.00141332
0.00121514
0.00104827
0.000911423
0.000801947
0.00071617
0.000649832
0.000598576
0.000558511
0.000526629
0.000501107
0.000480871
0.000467574
0.000462511
0.00642149
0.0061647
0.0058779
0.00555506
0.00524314
0.00492974
0.00460943
0.00427909
0.00393831
0.00358922
0.00323622
0.00288536
0.00254358
0.00221804
0.00191537
0.00164103
0.00139882
0.0011907
0.00101678
0.0008756
0.000764403
0.000679467
0.000616468
0.000570946
0.000538873
0.000517259
0.000504414
0.000499703
0.000501887
0.000509954
0.00712942
0.00682302
0.00648816
0.00610158
0.00572712
0.00535118
0.00496865
0.00457826
0.00418086
0.00377977
0.00338026
0.00298882
0.00261249
0.00225821
0.00193217
0.00163923
0.00138264
0.00116383
0.000982591
0.000837267
0.000725103
0.000642506
0.000585342
0.000549296
0.000530405
0.000525764
0.000533821
0.00055465
0.000581363
0.000612037
0.00805808
0.00768446
0.0072844
0.00680975
0.006348
0.0058845
0.0054163
0.00494493
0.00447313
0.00400554
0.00354811
0.00310745
0.00269024
0.00230274
0.00195025
0.00163673
0.00136457
0.00113457
0.000946131
0.000797463
0.000685964
0.000608462
0.000561436
0.000541208
0.000544304
0.000567977
0.000610711
0.000672979
0.000737556
0.000804489
0.00926976
0.008807
0.00832168
0.00772753
0.00714462
0.00655859
0.00597309
0.00539331
0.00482438
0.00427222
0.00374299
0.0032428
0.00277732
0.00235149
0.00196919
0.00163299
0.00134417
0.00110277
0.000907785
0.000757477
0.000649669
0.000582054
0.000552365
0.00055835
0.000597718
0.00066809
0.000766966
0.000893847
0.001014
0.00113361
0.0108285
0.01025
0.00965424
0.00890052
0.00815139
0.00739965
0.00665773
0.0059363
0.0052432
0.0045852
0.00396798
0.00339632
0.00287408
0.00240408
0.00198808
0.00162681
0.00132013
0.00106724
0.000866929
0.000717822
0.000618709
0.000568842
0.000568066
0.000616522
0.000713882
0.000858035
0.00104388
0.00126605
0.001463
0.00165419
0.0127687
0.0120402
0.0112961
0.0103379
0.0093766
0.00841717
0.0074814
0.0065863
0.00574222
0.00495625
0.00423309
0.00357565
0.00298544
0.00246269
0.00200665
0.00161593
0.00128889
0.00102401
0.000820189
0.000676971
0.000594813
0.000575276
0.000620965
0.000734849
0.00091866
0.00116994
0.00147918
0.00183201
0.0021361
0.00242213
0.0152245
0.0142454
0.0132597
0.0120614
0.0108658
0.00968019
0.00853038
0.0074369
0.00641297
0.00546779
0.00460708
0.00383365
0.0031479
0.00254846
0.00203282
0.00159811
0.00124175
0.000961989
0.000758283
0.000631398
0.000583352
0.000617168
0.000736287
0.000943455
0.0012391
0.00161881
0.00207082
0.00257911
0.00305395
0.00350975
0.0190383
0.017775
0.0164988
0.01502
0.0135292
0.0120245
0.010541
0.00911236
0.00776491
0.00651929
0.00538912
0.00438155
0.00349851
0.00273841
0.00209791
0.00157348
0.00116261
0.000864502
0.000680406
0.000613179
0.000665956
0.000840523
0.00113606
0.00154645
0.0020593
0.00265428
0.00330548
0.0039967
0.00460185
0.00520176
0.0309337
0.0286681
0.0260954
0.0234796
0.0208709
0.018269
0.0157322
0.0133161
0.0110665
0.00901903
0.00719651
0.00560895
0.00425655
0.00313368
0.00223286
0.00154833
0.00107844
0.000826978
0.000802178
0.0010147
0.0014746
0.00218712
0.00314768
0.00433972
0.00573362
0.00728687
0.0089465
0.0106987
0.0124957
0.0141181
0.00432738
0.00430466
0.0042852
0.00426666
0.00425007
0.00423665
0.00422796
0.00422568
0.00423158
0.00424758
0.00427572
0.00431836
0.00437823
0.00445864
0.00456363
0.00469827
0.00486916
0.0050853
0.00535919
0.00570846
0.00615808
0.00674331
0.00751169
0.00852181
0.0098406
0.0115408
0.0137007
0.0165545
0.0208781
0.0334656
0.00430229
0.00428564
0.00427151
0.00425986
0.00425256
0.00425044
0.00425453
0.00426608
0.0042866
0.00431787
0.00436201
0.00442151
0.00449942
0.00459941
0.00472603
0.00488502
0.00508395
0.005333
0.00564619
0.00604303
0.00655091
0.00720794
0.00806493
0.00918381
0.0106345
0.0125015
0.0149214
0.0181756
0.022875
0.0361866
0.0043044
0.00430048
0.00429847
0.00429856
0.00430282
0.00431241
0.00432869
0.00435315
0.00438745
0.0044335
0.00449353
0.00457022
0.00466679
0.00478722
0.00493646
0.00512086
0.00534884
0.00563169
0.00598485
0.00642957
0.00699534
0.00772294
0.00866603
0.00988885
0.011463
0.0134843
0.0161417
0.0197615
0.0247256
0.039205
0.00434122
0.0043502
0.00436089
0.00437349
0.00439035
0.00441287
0.00444258
0.00448113
0.00453035
0.00459232
0.00466947
0.00476467
0.0048814
0.00502392
0.00519758
0.0054093
0.00566817
0.0059864
0.00638033
0.00687225
0.0074927
0.00828333
0.0092981
0.0105995
0.0122556
0.0143718
0.0172073
0.0212012
0.0263487
0.042447
0.00440792
0.00442864
0.00445154
0.00447661
0.00450633
0.00454237
0.00458642
0.00464025
0.00470581
0.00478532
0.0048814
0.00499712
0.00513622
0.00530328
0.00550406
0.005746
0.00603888
0.00639559
0.00683318
0.00737445
0.00805027
0.00890201
0.00998211
0.0113486
0.0130628
0.0152383
0.0182202
0.0226242
0.0278193
0.0458762
0.00449763
0.00452869
0.00456296
0.00460018
0.00464277
0.00469258
0.00475144
0.00482127
0.00490413
0.00500237
0.00511876
0.00525656
0.00541972
0.00561313
0.00584291
0.00611696
0.00644556
0.00684214
0.00732405
0.00791416
0.00864281
0.00955003
0.0106851
0.0120994
0.013845
0.0160437
0.0191474
0.0240474
0.0291468
0.0496205
0.00460269
0.00464276
0.00468736
0.00473615
0.00479138
0.00485491
0.00492871
0.00501478
0.00511533
0.00523285
0.00537022
0.00553086
0.00571889
0.00593945
0.00619895
0.00650566
0.00687022
0.00730623
0.00783113
0.00846734
0.00924412
0.0101993
0.0113781
0.0128231
0.0145752
0.016764
0.0199678
0.0255006
0.0303676
0.05386
0.00471514
0.00476297
0.00481681
0.00487637
0.00494367
0.00502053
0.00510894
0.00521102
0.00532905
0.00546565
0.00562381
0.00580708
0.00601972
0.00626701
0.00655563
0.00689407
0.0072931
0.00776636
0.00833102
0.00900882
0.00982764
0.0108228
0.0120347
0.013496
0.0152342
0.0173844
0.0206648
0.027012
0.0315323
0.0587877
0.00482716
0.00488165
0.00494359
0.00501293
0.00509141
0.00518081
0.00528308
0.00540037
0.00553504
0.00568977
0.00586766
0.00607236
0.0063082
0.00658062
0.00689642
0.00726418
0.00769468
0.00820141
0.00880114
0.00951485
0.010369
0.0113965
0.012633
0.0141001
0.0158089
0.0178983
0.021226
0.0286015
0.032702
0.0645592
0.00493169
0.0049918
0.00506073
0.00513868
0.00522719
0.00532793
0.00544282
0.00557399
0.00572382
0.00589504
0.0060908
0.00631479
0.00657148
0.00686634
0.00720623
0.00759971
0.00805745
0.00859273
0.00922191
0.00996521
0.0108479
0.0119009
0.0131558
0.0146221
0.0162923
0.0183067
0.021647
0.0302727
0.0339403
0.0712168
0.00502293
0.00508765
0.00516243
0.00524769
0.00534481
0.00545537
0.00558122
0.00572442
0.00588738
0.00607281
0.00628391
0.00652439
0.0067988
0.00711261
0.00747266
0.00788742
0.00836745
0.00892578
0.0095784
0.0103449
0.0112496
0.0123224
0.0135913
0.0150539
0.0166814
0.0186159
0.0219336
0.0320042
0.0352922
0.0785986
0.0050966
0.00516498
0.00524441
0.00533558
0.00543971
0.00555828
0.00569305
0.00584606
0.00601966
0.00621658
0.00644001
0.00669373
0.00698224
0.00731103
0.00768685
0.00811811
0.00861522
0.00919102
0.00986117
0.0106447
0.0115655
0.0126529
0.0139328
0.0153913
0.0169768
0.0188355
0.0221011
0.0337375
0.0367566
0.0862485
0.00515013
0.00522121
0.00530411
0.0053997
0.00550908
0.00563365
0.0057751
0.00593541
0.00611692
0.00632236
0.00655492
0.00681835
0.00711716
0.00745678
0.00784392
0.00828691
0.00879607
0.00938405
0.0100663
0.0108614
0.011793
0.0128903
0.0141786
0.0156337
0.0171816
0.0189759
0.022173
0.0353738
0.0382627
0.0934396
0.00518263
0.00525545
0.00534062
0.00543911
0.00555193
0.00568041
0.00582618
0.00599121
0.00617784
0.00638878
0.00662721
0.00689687
0.0072022
0.00754864
0.00794285
0.00839313
0.00890971
0.00950514
0.0101946
0.0109966
0.0119344
0.0130379
0.0143319
0.0157848
0.017303
0.0190493
0.0221763
0.036748
0.0396327
0.0992721
0.00519464
0.0052683
0.00535458
0.00545447
0.00556894
0.00569927
0.00584709
0.00601435
0.00620339
0.00641693
0.00665812
0.00693066
0.00723899
0.00758855
0.00798601
0.00843966
0.00895968
0.00955857
0.0102514
0.0110565
0.0119973
0.0131037
0.014401
0.0158535
0.0173555
0.0190763
0.0221499
0.0375379
0.0404973
0.102595
0.0051878
0.00526149
0.0053478
0.00544772
0.00556218
0.00569247
0.00584024
0.00600743
0.0061964
0.00640984
0.00665089
0.00692325
0.0072314
0.00758077
0.0079781
0.00843167
0.00895172
0.0095507
0.0102437
0.0110491
0.0119903
0.0130973
0.0143954
0.0158486
0.0173512
0.0190728
0.0221422
0.0375235
0.040487
0.102722
0.00516208
0.005235
0.00532028
0.00541885
0.00553168
0.0056601
0.00580575
0.00597062
0.00615703
0.00636769
0.00660574
0.00687491
0.0071797
0.00752563
0.00791946
0.00836956
0.00888622
0.00948197
0.010172
0.0109749
0.011914
0.0130192
0.0143156
0.0157706
0.0172905
0.0190391
0.0221547
0.0367099
0.0396057
0.0996369
0.00511599
0.00518725
0.00527037
0.00536617
0.00547567
0.00560025
0.00574161
0.00590173
0.00608294
0.00628797
0.00651995
0.00678267
0.00708068
0.00741956
0.00780614
0.00824889
0.0087582
0.00934678
0.01003
0.0108267
0.0117605
0.0128608
0.0141527
0.0156112
0.0171621
0.01896
0.0221421
0.0353247
0.0382288
0.0939953
0.00504931
0.00511797
0.00519776
0.00528932
0.00539376
0.00551251
0.00564732
0.00580021
0.00597352
0.00616995
0.0063927
0.00664557
0.00693313
0.00726103
0.00763621
0.00806721
0.0085646
0.00914128
0.00981294
0.0105987
0.0115226
0.012614
0.0138984
0.0153612
0.0169513
0.0188154
0.0220676
0.0336926
0.0367262
0.0869416
0.00496325
0.00502837
0.00510366
0.00518952
0.00528719
0.00539817
0.00552425
0.00566751
0.00583027
0.00601525
0.00622565
0.00646525
0.00673866
0.00705155
0.00741093
0.00782548
0.00830591
0.00886538
0.00951996
0.0102893
0.0111978
0.0122752
0.0135492
0.0150169
0.0166509
0.0185936
0.0219051
0.0319764
0.0352738
0.079382
0.00486064
0.00492129
0.00499091
0.0050697
0.00515901
0.00526043
0.00537583
0.00550728
0.00565712
0.00582804
0.0060232
0.00624637
0.00650211
0.0067961
0.00713539
0.00752873
0.00798699
0.0085236
0.00915504
0.00990158
0.0107884
0.0118463
0.0131063
0.0145784
0.0162576
0.0182846
0.021631
0.0302715
0.0339408
0.0720494
0.00474596
0.0048012
0.00486407
0.0049345
0.00501405
0.00510441
0.00520749
0.00532536
0.00546031
0.005615
0.00579252
0.00599655
0.0062316
0.00650327
0.00681855
0.00718626
0.00761737
0.0081255
0.00872759
0.00944461
0.0103028
0.011335
0.0125763
0.0140499
0.015771
0.0178794
0.0212284
0.0286314
0.0327271
0.0654093
0.00462514
0.00467402
0.00472907
0.00479003
0.00485869
0.00493682
0.00502636
0.00512934
0.00524801
0.00538491
0.00554302
0.00572592
0.00593798
0.00618465
0.00647283
0.00681124
0.00721086
0.0076855
0.00825237
0.00893321
0.00975567
0.0107548
0.0119712
0.0134401
0.0151942
0.0173715
0.0206894
0.0270736
0.0315869
0.0596347
0.00450527
0.00454677
0.00459296
0.00464349
0.0047004
0.00476552
0.00484077
0.0049281
0.00502967
0.00514789
0.00528561
0.00544623
0.00563393
0.00585398
0.00611302
0.00641963
0.00678466
0.00722185
0.00774864
0.00838734
0.00916699
0.0101253
0.0113083
0.0127623
0.0145349
0.0167596
0.0200159
0.0255919
0.0304568
0.0546941
0.00439413
0.00442708
0.00446335
0.00450266
0.00454727
0.00459897
0.0046596
0.00473101
0.00481524
0.00491458
0.0050317
0.00516979
0.00533282
0.00552577
0.00575502
0.00602882
0.00635768
0.00675513
0.00723849
0.00783042
0.00856109
0.00947067
0.01061
0.012035
0.0138059
0.0160497
0.0192179
0.0241654
0.029276
0.0504424
0.00429963
0.00432271
0.00434801
0.0043755
0.00440749
0.00444564
0.00449166
0.00454729
0.00461446
0.00469531
0.00479235
0.00490856
0.00504762
0.00521423
0.0054144
0.0056559
0.00594882
0.00630612
0.00674472
0.00728722
0.00796438
0.00881807
0.00990283
0.0112823
0.0130267
0.0152554
0.0183109
0.0227666
0.0279946
0.0466945
0.00422938
0.00424116
0.00425458
0.00426978
0.00428899
0.00431365
0.00434532
0.00438565
0.00443645
0.00449973
0.00457782
0.0046735
0.00479017
0.00493219
0.00510516
0.00531634
0.00557514
0.00589381
0.00628851
0.00678133
0.00740294
0.00819578
0.00921643
0.0105335
0.0122244
0.0144005
0.0173157
0.0213668
0.0265759
0.0432759
0.00419016
0.00418945
0.00419038
0.00419304
0.00419944
0.00421087
0.00422875
0.00425459
0.00429005
0.00433701
0.00439762
0.00447451
0.00457087
0.00469073
0.00483928
0.0050232
0.00525116
0.00553452
0.00588853
0.00633436
0.0069019
0.00763299
0.00858426
0.00982622
0.0114393
0.013525
0.0162655
0.0199503
0.0250099
0.0400598
0.00418678
0.00417367
0.00416242
0.00415296
0.00414723
0.00414623
0.00415113
0.00416323
0.00418407
0.00421544
0.00425946
0.00431863
0.00439604
0.00449543
0.00462153
0.00478032
0.00497954
0.00522946
0.00554407
0.00594299
0.00645416
0.00711698
0.0079852
0.00912662
0.0106185
0.0125504
0.0150531
0.0183804
0.0232042
0.0370634
0.00421284
0.00419326
0.00417567
0.00415826
0.00414222
0.00412889
0.00411988
0.00411696
0.004122
0.00413699
0.00416406
0.00420563
0.00426456
0.00434428
0.00444896
0.00458376
0.00475537
0.00497287
0.00524908
0.00560189
0.00605683
0.0066504
0.00743281
0.00846805
0.00982834
0.0115908
0.0138311
0.0167663
0.0212358
0.0343586
0.0318165
0.0295116
0.0268633
0.0241508
0.0214417
0.0187445
0.0161211
0.0136295
0.0113163
0.00921722
0.00735434
0.00573662
0.004363
0.00322661
0.00231892
0.00163333
0.00116759
0.000925193
0.000914157
0.00114488
0.00162702
0.00236498
0.00335271
0.00457145
0.00598863
0.00755845
0.00922495
0.0109728
0.0127527
0.0143555
0.0194121
0.0181586
0.0168672
0.0153474
0.0138085
0.012257
0.0107315
0.0092677
0.00789241
0.00662573
0.00548031
0.00446221
0.00357233
0.00280824
0.00216591
0.00164121
0.00123115
0.00093434
0.000751576
0.000685308
0.000738297
0.000912025
0.00120541
0.00161209
0.00211945
0.00270675
0.00334826
0.00402881
0.0046166
0.00520797
0.0154461
0.0144834
0.0134998
0.0122852
0.0110642
0.00985111
0.00867494
0.00755844
0.00651579
0.00555621
0.00468498
0.0039042
0.00321357
0.00261103
0.00209349
0.00165749
0.00129983
0.00101809
0.000810958
0.000678484
0.000622096
0.000644503
0.000749209
0.00093943
0.00121645
0.00157699
0.00201092
0.00250438
0.00296549
0.00341742
0.0129003
0.0121811
0.0114383
0.0104701
0.00949507
0.00852183
0.00757355
0.00666795
0.00581555
0.00502333
0.00429572
0.00363532
0.00304327
0.00251949
0.00206291
0.00167176
0.00134391
0.00107722
0.000869875
0.00072075
0.000629887
0.000598917
0.000631113
0.000730577
0.000900297
0.00113883
0.00143728
0.00178174
0.00208148
0.00236766
0.0108792
0.0103044
0.00970721
0.00894845
0.00819558
0.00744247
0.00670081
0.00598047
0.0052887
0.00463194
0.00401579
0.00344505
0.00292363
0.00245437
0.00203896
0.00167795
0.00137085
0.00111636
0.000912683
0.00075795
0.00065077
0.00059076
0.000578752
0.000616299
0.00070443
0.000841841
0.00102335
0.00124272
0.00143913
0.00163016
0.00925972
0.00879824
0.00831118
0.00771617
0.00713608
0.0065568
0.00597981
0.00540879
0.00484779
0.00430215
0.00377795
0.00328147
0.00281869
0.00239477
0.00201369
0.00167797
0.00138866
0.00114542
0.000946909
0.000791131
0.000675999
0.000599741
0.000561051
0.000558855
0.000591876
0.000658263
0.000755363
0.000881787
0.00100273
0.00112256
0.00800709
0.0076349
0.00723456
0.00676242
0.00630712
0.00585386
0.00539791
0.00493915
0.00447896
0.00402117
0.00357146
0.00313656
0.00272349
0.00233882
0.00198804
0.00167513
0.00140235
0.0011703
0.000978236
0.000824428
0.000706572
0.000622086
0.000568223
0.000542078
0.000540737
0.000561712
0.00060341
0.000665932
0.000732128
0.000800758
0.00705255
0.0067487
0.00641537
0.00603331
0.00566671
0.00530208
0.00493287
0.00455645
0.00417234
0.00378287
0.00339284
0.00300869
0.00263771
0.00228716
0.00196339
0.00167135
0.00141421
0.00119338
0.0010087
0.000858796
0.000741352
0.000653347
0.000591219
0.000551079
0.000529172
0.000522623
0.000529822
0.00055077
0.000578976
0.000611746
0.00632899
0.0060752
0.00579112
0.00547366
0.00516997
0.00486782
0.00456074
0.00424455
0.00391764
0.00358112
0.00323875
0.00289634
0.00256097
0.00224005
0.00194035
0.0016674
0.00142499
0.00121514
0.00103822
0.000893158
0.000777728
0.000688737
0.000622274
0.000574083
0.000540122
0.000517249
0.000503658
0.000498683
0.000501564
0.000510996
0.00577811
0.00555992
0.00531214
0.00504116
0.00478211
0.0045245
0.00426201
0.00398997
0.00370609
0.00341055
0.00310617
0.00279802
0.00249271
0.00219745
0.00191913
0.00166351
0.00143479
0.00123542
0.00106613
0.000926159
0.000813395
0.000724674
0.000656045
0.000603222
0.000562166
0.000529601
0.000503485
0.000482618
0.000469131
0.000464379
0.00535521
0.00516254
0.00494174
0.00470418
0.00447734
0.00425172
0.00402157
0.00378207
0.0035306
0.00326673
0.00299253
0.00271238
0.00243233
0.00215922
0.00189976
0.00165975
0.00144356
0.0012539
0.00109181
0.000956739
0.000846758
0.000758843
0.000689179
0.000633626
0.000588276
0.000549802
0.000515987
0.000485304
0.00046141
0.000448299
0.00502759
0.00485391
0.00465352
0.00444079
0.00423721
0.00403468
0.00382805
0.00361259
0.00338549
0.00314596
0.0028956
0.00263822
0.00237928
0.00212515
0.0018822
0.00165608
0.00145118
0.00127035
0.00111481
0.000984213
0.000876839
0.000789859
0.000719692
0.000662418
0.000614297
0.000572049
0.00053327
0.000496505
0.000466009
0.000448114
0.00477237
0.00461297
0.00442843
0.00423444
0.00404797
0.00386238
0.00367285
0.00347502
0.00326606
0.00304511
0.00281346
0.00257448
0.00233307
0.00209507
0.00186641
0.00165248
0.00145759
0.00128461
0.00113488
0.00100822
0.000903118
0.000816979
0.000746473
0.000687946
0.000637829
0.000592903
0.000550888
0.000510362
0.000475758
0.000455386
0.00457337
0.00442498
0.00425306
0.00407356
0.00389993
0.00372661
0.0035493
0.00336413
0.00316845
0.0029615
0.00274443
0.00252022
0.00229326
0.00206881
0.00185236
0.00164897
0.00146279
0.00129665
0.00115195
0.00102865
0.000925415
0.000839878
0.000768953
0.000709274
0.000657479
0.000610586
0.000566442
0.000523652
0.000486635
0.000465327
0.00441877
0.00427924
0.00411765
0.00394939
0.00378531
0.00362083
0.00345193
0.00327556
0.0030894
0.00289288
0.00268708
0.00247463
0.00225943
0.00204622
0.00184002
0.00164559
0.00146684
0.00130655
0.0011661
0.00104557
0.000943767
0.000858513
0.000786985
0.000726097
0.000672757
0.000624337
0.000578758
0.0005347
0.000496458
0.000475221
0.00430004
0.00416774
0.00401463
0.00385511
0.003698
0.0035396
0.00337628
0.00320571
0.00302623
0.00283737
0.00264017
0.00243694
0.00223116
0.0020271
0.00182937
0.0016424
0.00146989
0.00131447
0.00117752
0.00105917
0.000958334
0.000873033
0.000800677
0.000738461
0.000683673
0.000633986
0.00058742
0.00054275
0.000504075
0.000483507
0.00421083
0.00408435
0.00393807
0.00378524
0.00363298
0.00347845
0.00331872
0.00315175
0.00297678
0.00279343
0.00260262
0.00240645
0.00220804
0.00201127
0.00182039
0.0016395
0.00147207
0.0013206
0.00118642
0.00106965
0.000969343
0.000883671
0.000810287
0.000746683
0.000690501
0.000639713
0.000592455
0.000547582
0.000508948
0.000489269
0.00414619
0.00402426
0.00388331
0.00373543
0.0035864
0.00343415
0.00327649
0.00311159
0.00293941
0.00275978
0.0025735
0.00238251
0.00218967
0.00199855
0.00181304
0.00163695
0.00147353
0.00132513
0.00119299
0.00107725
0.000977027
0.000890689
0.000816134
0.000751142
0.000693608
0.000641841
0.000594066
0.000549216
0.000510858
0.000491994
0.00410213
0.00398365
0.00384685
0.00370251
0.00355545
0.00340432
0.00324757
0.00308368
0.00291285
0.00273539
0.00255201
0.00236456
0.0021757
0.00198873
0.00180727
0.00163482
0.0014744
0.00132821
0.00119741
0.00108214
0.0009816
0.00089433
0.000818476
0.000752082
0.000693303
0.000640662
0.000592457
0.000547749
0.000509766
0.000491479
0.00407532
0.00395949
0.00382598
0.00368424
0.00353824
0.00338735
0.00323056
0.00306685
0.00289614
0.00271947
0.00253754
0.00235214
0.00216583
0.00198168
0.00180302
0.00163312
0.00147476
0.00132996
0.00119982
0.00108447
0.000983222
0.000894774
0.000817515
0.000749732
0.000689785
0.000636272
0.000587811
0.000543327
0.000505759
0.000487752
0.00406304
0.00394943
0.0038186
0.00367888
0.00353344
0.00338218
0.0032246
0.0030602
0.00288857
0.00271142
0.00252962
0.00234492
0.00215983
0.00197725
0.00180027
0.00163188
0.00147464
0.00133044
0.00120029
0.00108434
0.00098199
0.000892135
0.000813372
0.000744208
0.000683203
0.000628999
0.000580358
0.000536167
0.000499037
0.000480983
0.00406293
0.00395153
0.00382315
0.00368514
0.00354009
0.00338802
0.00322903
0.00306308
0.00288968
0.00271084
0.00252794
0.0023427
0.00215759
0.00197539
0.00179897
0.00163108
0.00147407
0.00132969
0.00119886
0.00108177
0.000977955
0.00088647
0.000806123
0.000735609
0.00067368
0.000618956
0.000570283
0.000526509
0.000489866
0.000471467
0.00407285
0.00396405
0.00383819
0.00370188
0.00355724
0.00340433
0.00324337
0.00307501
0.00289915
0.0027175
0.00253236
0.0023454
0.00215908
0.00197608
0.00179911
0.0016307
0.00147302
0.00132765
0.0011955
0.00107677
0.000971127
0.000877814
0.000795829
0.000724038
0.000661269
0.000606281
0.000557824
0.000514604
0.000478558
0.000459554
0.00409068
0.00398524
0.00386241
0.00372812
0.00358407
0.00343033
0.00326718
0.00309575
0.00291678
0.0027314
0.00254295
0.00235313
0.0021644
0.00197941
0.00180072
0.00163072
0.00147139
0.00132424
0.00119011
0.00106926
0.000961486
0.000866197
0.000782564
0.000709588
0.000646156
0.000591147
0.000543098
0.000500723
0.000465451
0.000445661
0.00411426
0.00401332
0.0038945
0.00376293
0.00362
0.00346545
0.00330004