/*--------------------------------*- C++ -*----------------------------------*\
  =========                 |
  \\      /  F ield         | OpenFOAM: The Open Source CFD Toolbox
   \\    /   O peration     | Website:  https://openfoam.org
    \\  /    A nd           | Version:  12
     \\/     M anipulation  |
\*---------------------------------------------------------------------------*/
FoamFile
{
    format      ascii;
    class       volVectorField;
    location    "300";
    object      U;
}
// * * * * * * * * * * * * * * * * * * * * * * * * * * * * * * * * * * * * * //

dimensions      [0 1 -1 0 0 0 0];

internalField   nonuniform List<vector> 
6750
(
(0.200065 -0.0031206 0)
(0.200334 -0.00958866 0)
(0.200601 -0.0155817 0)
(0.200832 -0.021157 0)
(0.200689 -0.0263973 0)
(0.200037 -0.00347821 0)
(0.200271 -0.0101449 0)
(0.200458 -0.0160526 0)
(0.200516 -0.0213269 0)
(0.200374 -0.0260406 0)
(0.200026 -0.00363734 0)
(0.200122 -0.0103569 0)
(0.200123 -0.0161214 0)
(0.19998 -0.0210922 0)
(0.19971 -0.0253525 0)
(0.20001 -0.00366808 0)
(0.199953 -0.0102923 0)
(0.199761 -0.0158487 0)
(0.199437 -0.0205373 0)
(0.199037 -0.0244795 0)
(0.199996 -0.00359785 0)
(0.199798 -0.00999879 0)
(0.199422 -0.0152924 0)
(0.198921 -0.0197078 0)
(0.198376 -0.0233929 0)
(0.199984 -0.00344433 0)
(0.199656 -0.00951142 0)
(0.199104 -0.0144868 0)
(0.198422 -0.018613 0)
(0.197713 -0.0220487 0)
(0.199974 -0.00322205 0)
(0.199524 -0.00885777 0)
(0.198799 -0.0134567 0)
(0.197931 -0.0172616 0)
(0.197044 -0.0204302 0)
(0.199965 -0.00294203 0)
(0.199398 -0.00806061 0)
(0.198505 -0.0122257 0)
(0.197451 -0.0156697 0)
(0.196378 -0.0185417 0)
(0.199956 -0.00261387 0)
(0.199281 -0.0071424 0)
(0.198228 -0.0108215 0)
(0.196995 -0.0138649 0)
(0.195739 -0.0164075 0)
(0.199949 -0.00224731 0)
(0.199175 -0.00612768 0)
(0.197976 -0.00927768 0)
(0.196579 -0.0118856 0)
(0.195152 -0.0140688 0)
(0.199943 -0.00185264 0)
(0.199084 -0.00504314 0)
(0.197758 -0.00763264 0)
(0.196219 -0.00977854 0)
(0.194641 -0.0115782 0)
(0.199938 -0.00144051 0)
(0.199011 -0.00391641 0)
(0.197583 -0.00592684 0)
(0.195927 -0.00759407 0)
(0.194226 -0.00899426 0)
(0.199935 -0.00102122 0)
(0.198957 -0.00277436 0)
(0.197453 -0.00419997 0)
(0.195712 -0.00538214 0)
(0.193918 -0.00637577 0)
(0.199931 -0.000603981 0)
(0.198926 -0.0016417 0)
(0.197371 -0.00248805 0)
(0.195574 -0.00318833 0)
(0.19372 -0.00377708 0)
(0.199921 -0.000200517 0)
(0.198921 -0.000537938 0)
(0.197334 -0.000819697 0)
(0.19551 -0.00105068 0)
(0.193626 -0.00124467 0)
(0.199921 0.000200324 0)
(0.198921 0.000537427 0)
(0.197334 0.000818943 0)
(0.19551 0.00104975 0)
(0.193626 0.00124359 0)
(0.199931 0.000603787 0)
(0.198926 0.00164119 0)
(0.197371 0.00248729 0)
(0.195574 0.0031874 0)
(0.19372 0.00377601 0)
(0.199935 0.00102103 0)
(0.198957 0.00277385 0)
(0.197453 0.00419922 0)
(0.195712 0.00538121 0)
(0.193918 0.00637471 0)
(0.199938 0.00144032 0)
(0.199011 0.00391591 0)
(0.197583 0.00592609 0)
(0.195927 0.00759315 0)
(0.194226 0.0089932 0)
(0.199943 0.00185245 0)
(0.199084 0.00504264 0)
(0.197758 0.0076319 0)
(0.196219 0.00977763 0)
(0.194641 0.0115772 0)
(0.199949 0.00224712 0)
(0.199175 0.00612718 0)
(0.197976 0.00927695 0)
(0.196579 0.0118847 0)
(0.195152 0.0140678 0)
(0.199956 0.00261369 0)
(0.199281 0.00714191 0)
(0.198227 0.0108208 0)
(0.196995 0.013864 0)
(0.195739 0.0164065 0)
(0.199965 0.00294185 0)
(0.199398 0.00806013 0)
(0.198505 0.012225 0)
(0.197451 0.0156689 0)
(0.196378 0.0185407 0)
(0.199974 0.00322187 0)
(0.199524 0.0088573 0)
(0.198799 0.013456 0)
(0.197931 0.0172608 0)
(0.197044 0.0204292 0)
(0.199984 0.00344416 0)
(0.199656 0.00951096 0)
(0.199104 0.0144861 0)
(0.198422 0.0186121 0)
(0.197713 0.0220478 0)
(0.199996 0.00359768 0)
(0.199798 0.00999834 0)
(0.199422 0.0152918 0)
(0.198921 0.0197069 0)
(0.198376 0.0233919 0)
(0.20001 0.00366792 0)
(0.199953 0.0102919 0)
(0.199761 0.015848 0)
(0.199437 0.0205365 0)
(0.199037 0.0244786 0)
(0.200026 0.00363718 0)
(0.200122 0.0103565 0)
(0.200123 0.0161208 0)
(0.19998 0.0210914 0)
(0.19971 0.0253516 0)
(0.200037 0.00347807 0)
(0.200271 0.0101445 0)
(0.200458 0.016052 0)
(0.200516 0.0213261 0)
(0.200374 0.0260397 0)
(0.200065 0.00312048 0)
(0.200334 0.00958831 0)
(0.200601 0.0155812 0)
(0.200831 0.0211563 0)
(0.200689 0.0263965 0)
(0.19851 -0.0381714 0)
(0.196771 -0.0437667 0)
(0.19529 -0.0488916 0)
(0.194259 -0.0534928 2.81644e-22)
(0.193531 -0.0574584 0)
(0.193048 -0.0607276 0)
(0.192799 -0.0632341 -1.92808e-20)
(0.192771 -0.0648823 1.9451e-20)
(0.192944 -0.0655551 1.57918e-22)
(0.193246 -0.065198 1.01122e-20)
(0.19365 -0.0636829 1.92612e-23)
(0.194077 -0.0608568 -1.25443e-23)
(0.194448 -0.0567896 -5.20714e-21)
(0.194679 -0.0515507 -5.16763e-21)
(0.194696 -0.0452836 -1.20667e-20)
(0.194444 -0.0381983 1.2071e-20)
(0.193893 -0.0305543 -4.84454e-21)
(0.193043 -0.0226325 -4.4962e-21)
(0.191924 -0.0147141 3.11574e-22)
(0.190583 -0.00705481 3.53665e-22)
(0.189075 0.000135151 8.63477e-21)
(0.187473 0.00674102 -1.27241e-22)
(0.185861 0.0126391 1.47816e-20)
(0.184299 0.0177725 -1.46508e-20)
(0.182838 0.0221306 0)
(0.181518 0.0257342 0)
(0.180371 0.0286245 -1.86092e-22)
(0.179419 0.030854 0)
(0.178685 0.0324778 0)
(0.178159 0.0335215 0)
(0.197622 -0.0415329 0)
(0.196045 -0.0470381 0)
(0.194851 -0.0517301 0)
(0.194008 -0.0558203 -2.66194e-22)
(0.193399 -0.0592951 0)
(0.19301 -0.0621143 0)
(0.19284 -0.0642065 1.91982e-20)
(0.192875 -0.0654748 -1.96598e-20)
(0.19309 -0.0658105 -1.48637e-22)
(0.193415 -0.0651814 0)
(0.193825 -0.0634226 0)
(0.194232 -0.0604519 -9.562e-21)
(0.194569 -0.0563325 9.59211e-21)
(0.194758 -0.0511355 0)
(0.194731 -0.0449975 -3.21854e-20)
(0.194442 -0.0381124 3.21857e-20)
(0.193865 -0.0307147 0)
(0.193004 -0.0230595 8.70592e-21)
(0.191885 -0.0153986 -8.75017e-21)
(0.190555 -0.00796285 0)
(0.189072 -0.000942485 0)
(0.1875 0.00554168 1.1937e-22)
(0.185904 0.0113802 -1.41909e-20)
(0.184349 0.0165155 1.42979e-20)
(0.182883 0.0209289 0)
(0.181545 0.0246319 0)
(0.180363 0.0276571 1.75241e-22)
(0.179358 0.0300497 0)
(0.178556 0.0318681 0)
(0.177965 0.0331879 0)
(0.196785 -0.0441221 0)
(0.195527 -0.0491168 0)
(0.194514 -0.0533903 0)
(0.193763 -0.0571468 1.95925e-20)
(0.193228 -0.0603394 -1.98099e-20)
(0.192911 -0.0629045 2.06821e-20)
(0.192808 -0.0647592 -2.08765e-20)
(0.1929 -0.0658055 3.21667e-22)
(0.193159 -0.0659433 0)
(0.193516 -0.0651473 0)
(0.193941 -0.0632312 -3.21105e-22)
(0.194342 -0.0601659 0)
(0.194657 -0.0560023 0)
(0.194808 -0.0508141 -7.602e-23)
(0.19473 -0.0447359 -5.29819e-20)
(0.19438 -0.0379542 5.29822e-20)
(0.193738 -0.0306921 7.03501e-23)
(0.192812 -0.0231897 0)
(0.191633 -0.0156834 0)
(0.190249 -0.00838769 2.54864e-22)
(0.188719 -0.00147988 0)
(0.187107 0.00490417 0)
(0.185478 0.0106782 -2.36437e-22)
(0.183891 0.0157856 -1.37785e-20)
(0.182393 0.0202051 1.36502e-20)
(0.181021 0.0239439 -1.26605e-20)
(0.1798 0.0270287 1.25028e-20)
(0.178748 0.0294975 0)
(0.177895 0.0314083 0)
(0.177319 0.0329053 0)
(0.196046 -0.0464488 0)
(0.195012 -0.0510239 -4.24187e-20)
(0.194103 -0.0549629 2.13885e-20)
(0.193421 -0.058427 4.4453e-20)
(0.192956 -0.0613509 -4.49911e-20)
(0.192708 -0.063663 2.23791e-20)
(0.192666 -0.065278 0)
(0.192817 -0.0661003 7.02645e-22)
(0.193111 -0.0660472 0)
(0.193508 -0.0650739 0)
(0.193948 -0.0630054 1.13923e-20)
(0.19435 -0.059848 -1.07662e-20)
(0.194646 -0.0556413 0)
(0.194757 -0.0504624 7.98111e-23)
(0.19462 -0.0444438 -7.33672e-20)
(0.194194 -0.0377653 7.33676e-20)
(0.193464 -0.030639 -7.38583e-23)
(0.192443 -0.0232914 0)
(0.191165 -0.0159443 -8.51032e-21)
(0.189684 -0.00879811 7.9502e-21)
(0.188062 -0.00201961 2.43287e-22)
(0.186367 0.00426413 0)
(0.184664 0.00996769 -4.45539e-22)
(0.18301 0.0150386 0)
(0.181452 0.0194556 1.30197e-20)
(0.180027 0.023223 -2.48102e-20)
(0.178756 0.0263631 2.34508e-20)
(0.177651 0.028907 1.05247e-20)
(0.176746 0.0309083 -2.17306e-20)
(0.176204 0.0325825 0)
(0.195288 -0.048665 0)
(0.194389 -0.0528757 4.76069e-20)
(0.193562 -0.0565026 -4.67819e-20)
(0.192952 -0.0596784 0)
(0.192557 -0.0623334 0)
(0.192372 -0.0643921 7.61727e-22)
(0.192389 -0.0657678 0)
(0.192592 -0.0663659 -7.36216e-22)
(0.192925 -0.0661256 1.16241e-20)
(0.193356 -0.0649667 -1.17838e-20)
(0.19381 -0.0627499 -1.16427e-20)
(0.19421 -0.0594959 1.1341e-20)
(0.194482 -0.0552407 3.38513e-22)
(0.194546 -0.0500643 -1.63418e-22)
(0.194342 -0.0440978 -9.33616e-20)
(0.19383 -0.0375151 9.3362e-20)
(0.192999 -0.0305187 1.44647e-22)
(0.191864 -0.0233228 -2.76844e-22)
(0.190466 -0.0161354 8.50651e-21)
(0.188864 -0.00914412 -8.19933e-21)
(0.187125 -0.00250457 -8.06014e-21)
(0.185319 0.00366488 7.74952e-21)
(0.183513 0.00928282 4.66923e-22)
(0.181766 0.0143003 0)
(0.180126 0.018697 -4.02723e-22)
(0.178627 0.0224759 0)
(0.177292 0.025656 0)
(0.176127 0.0282624 -2.23059e-20)
(0.175162 0.0303429 2.13328e-20)
(0.174648 0.0321851 0)
(0.194434 -0.0507719 4.89964e-20)
(0.19362 -0.0546345 -7.70231e-20)
(0.192868 -0.0579618 2.53776e-20)
(0.192329 -0.0608606 0)
(0.191999 -0.0632567 2.56636e-20)
(0.191875 -0.0650706 -2.5132e-20)
(0.191947 -0.0662144 2.47212e-20)
(0.192199 -0.0665967 -2.56146e-20)
(0.192568 -0.0661718 0)
(0.193027 -0.0648256 -7.74396e-22)
(0.193488 -0.0624641 1.1863e-20)
(0.19388 -0.0591097 -6.17232e-21)
(0.194122 -0.0547993 -9.30158e-22)
(0.194134 -0.0496154 -5.39427e-21)
(0.193855 -0.0436887 -1.12993e-19)
(0.19325 -0.0371884 1.12989e-19)
(0.192308 -0.0303093 -4.82493e-21)
(0.191051 -0.0232548 7.71382e-22)
(0.189523 -0.0162212 -4.06697e-21)
(0.187788 -0.00938369 8.46602e-21)
(0.185917 -0.00288751 4.806e-22)
(0.183984 0.00315725 0)
(0.182059 0.00867499 -1.41488e-20)
(0.180202 0.0136209 1.44288e-20)
(0.178461 0.0179766 -1.32907e-20)
(0.176873 0.021745 1.27626e-20)
(0.175458 0.0249428 7.27529e-22)
(0.174222 0.0275907 1.12217e-20)
(0.173189 0.0297302 -3.27594e-20)
(0.172685 0.0317156 2.31232e-20)
(0.193439 -0.0527531 -2.56583e-20)
(0.192679 -0.0562815 2.89822e-20)
(0.191996 -0.0593274 2.90259e-20)
(0.191522 -0.0619647 -2.94322e-20)
(0.191254 -0.0641139 2.75125e-20)
(0.191186 -0.0656923 -2.9566e-20)
(0.19131 -0.0666126 -8.8442e-22)
(0.191607 -0.0667879 0)
(0.192008 -0.0661781 1.30752e-20)
(0.192487 -0.0646455 3.73023e-22)
(0.192951 -0.0621413 3.22406e-22)
(0.193327 -0.058683 -1.2901e-20)
(0.193531 -0.0543103 -5.39235e-21)
(0.193483 -0.049109 8.53114e-21)
(0.193125 -0.0432097 -1.34736e-19)
(0.19242 -0.0367784 1.29489e-19)
(0.191365 -0.0300032 7.21291e-21)
(0.189982 -0.0230786 -5.28686e-21)
(0.188321 -0.0161904 -8.50376e-21)
(0.186449 -0.00950318 -1.21471e-22)
(0.184441 -0.00315209 -1.6347e-22)
(0.182374 0.00276092 7.6227e-21)
(0.180321 0.00816659 0)
(0.178343 0.0130247 3.85167e-22)
(0.176491 0.0173197 -1.19351e-20)
(0.174801 0.0210554 1.2612e-20)
(0.173296 0.0242478 -1.16936e-20)
(0.171977 0.0269142 1.08007e-20)
(0.170866 0.0290906 1.06865e-20)
(0.170349 0.0311879 -1.21094e-20)
(0.192265 -0.0546044 0)
(0.191538 -0.0578172 2.72394e-20)
(0.190918 -0.0606014 -3.31745e-20)
(0.190505 -0.062992 3.12524e-20)
(0.190294 -0.0649049 -2.98429e-20)
(0.19028 -0.0662558 2.73968e-20)
(0.190453 -0.066959 -2.77454e-20)
(0.190784 -0.0669359 -1.80995e-21)
(0.191217 -0.066134 -8.85916e-22)
(0.191707 -0.0644186 -8.64071e-22)
(0.192166 -0.0617723 -8.32838e-22)
(0.192519 -0.058206 4.01527e-22)
(0.192678 -0.0537645 -6.35756e-21)
(0.192565 -0.0485368 3.15529e-21)
(0.192122 -0.0426541 -1.47686e-19)
(0.191316 -0.0362797 1.53061e-19)
(0.190146 -0.0295964 2.24505e-21)
(0.188639 -0.0227911 -4.1836e-21)
(0.186846 -0.0160403 2.65649e-22)
(0.184838 -0.00949886 1.0265e-21)
(0.182694 -0.00329285 4.71023e-22)
(0.180493 0.00248379 4.45522e-22)
(0.17831 0.00776823 8.45705e-22)
(0.176208 0.0125252 -1.39751e-20)
(0.174238 0.0167422 1.37284e-20)
(0.17244 0.0204251 -1.20168e-20)
(0.170834 0.0235898 1.10977e-20)
(0.169423 0.026252 -9.70001e-21)
(0.168227 0.0284436 1.16106e-20)
(0.167675 0.0306196 0)
(0.190877 -0.0563271 0)
(0.19017 -0.0592441 1.97802e-21)
(0.189608 -0.0617846 -2.74186e-20)
(0.189252 -0.0639413 4.15397e-22)
(0.189094 -0.0656268 3.19117e-20)
(0.18913 -0.0667569 1.95013e-21)
(0.18935 -0.0672462 1.95068e-21)
(0.189705 -0.0670315 -1.30491e-20)
(0.190164 -0.0660312 1.61246e-20)
(0.190659 -0.0641385 -4.9593e-24)
(0.191107 -0.0613472 -6.83062e-21)
(0.191428 -0.0576688 6.87165e-21)
(0.191535 -0.0531523 -2.6956e-21)
(0.191351 -0.0478905 3.10513e-21)
(0.190821 -0.0420151 -1.68496e-19)
(0.189914 -0.0356876 1.68496e-19)
(0.188631 -0.029086 2.4099e-21)
(0.187002 -0.0223906 -2.69932e-21)
(0.185082 -0.0157695 3.94692e-21)
(0.182944 -0.00936919 -5.21883e-21)
(0.180669 -0.00330697 -2.9254e-23)
(0.178339 0.00233069 7.04434e-21)
(0.176028 0.00748724 -7.88781e-21)
(0.173803 0.0121323 -7.84182e-22)
(0.171716 0.0162571 -8.04031e-22)
(0.169805 0.0198697 1.17352e-20)
(0.168095 0.0229866 -3.29888e-22)
(0.166587 0.0256233 -1.24164e-20)
(0.165298 0.0278092 0)
(0.16469 0.0300307 0)
(0.18924 -0.0579234 0)
(0.188546 -0.0605634 -3.53147e-20)
(0.188037 -0.0628755 4.09937e-22)
(0.187735 -0.064809 5.2214e-22)
(0.187628 -0.0662746 6.53041e-20)
(0.187709 -0.0671892 -3.38736e-20)
(0.187968 -0.0674695 -2.03859e-21)
(0.188348 -0.0670626 0)
(0.188825 -0.0658612 1.44566e-20)
(0.189316 -0.0637933 -1.46606e-20)
(0.189746 -0.0608549 7.1412e-21)
(0.190029 -0.0570605 -3.99112e-22)
(0.190078 -0.0524642 -6.81996e-21)
(0.18982 -0.047162 1.92795e-22)
(0.1892 -0.0412866 -1.85805e-19)
(0.188192 -0.0349978 1.85888e-19)
(0.186799 -0.0284698 -1.54301e-22)
(0.185054 -0.0218763 -4.51172e-21)
(0.183014 -0.0153784 2.93436e-22)
(0.180755 -0.0091144 5.17817e-21)
(0.178357 -0.00319389 -7.82027e-21)
(0.175905 0.00230375 7.23561e-21)
(0.173474 0.00732795 0)
(0.171131 0.0118532 8.19604e-22)
(0.168929 0.0158744 -1.18592e-20)
(0.166908 0.019402 2.37378e-20)
(0.165092 0.0224539 -3.06587e-22)
(0.163483 0.0250457 5.56665e-22)
(0.162099 0.0272067 -1.03876e-20)
(0.16142 0.0294425 0)
(0.187323 -0.0593954 -4.54887e-21)
(0.186638 -0.061775 0)
(0.18618 -0.0638712 -2.2208e-21)
(0.185928 -0.0655902 3.33852e-20)
(0.185868 -0.0668417 -3.62892e-20)
(0.185993 -0.0675447 3.50877e-20)
(0.186284 -0.067621 -3.53874e-20)
(0.186688 -0.0670161 -1.67132e-20)
(0.187173 -0.0656132 3.53436e-20)
(0.187655 -0.0633711 2.1157e-22)
(0.188059 -0.0602837 -1.48115e-20)
(0.188297 -0.0563704 7.05411e-21)
(0.188284 -0.0516905 -3.77768e-21)
(0.187948 -0.0463433 -5.0705e-21)
(0.187239 -0.0404627 -2.009e-19)
(0.186131 -0.0342068 2.03676e-19)
(0.184633 -0.027746 -3.60319e-21)
(0.182778 -0.0212485 -2.0672e-21)
(0.180627 -0.0148683 4.47872e-21)
(0.178255 -0.00873641 -8.68418e-21)
(0.175746 -0.00295522 3.05041e-23)
(0.173181 0.00240244 1.2917e-20)
(0.17064 0.00729166 -6.61614e-21)
(0.168187 0.0116915 -1.19309e-20)
(0.165877 0.0156004 1.17656e-20)
(0.16375 0.0190315 -1.09397e-20)
(0.161831 0.0220039 1.13289e-20)
(0.160122 0.0245345 -6.00663e-22)
(0.158642 0.0266533 0)
(0.157879 0.0288752 1.43193e-21)
(0.185093 -0.060744 4.73086e-21)
(0.184416 -0.0628774 -4.01107e-20)
(0.184007 -0.0647672 3.84478e-20)
(0.183805 -0.0662781 2.36847e-21)
(0.18379 -0.0673195 2.35948e-21)
(0.183957 -0.0678124 0)
(0.184268 -0.0676894 -2.30934e-21)
(0.184695 -0.0668785 -1.99152e-20)
(0.185181 -0.0652764 3.39285e-20)
(0.185649 -0.0628595 -1.83274e-20)
(0.186021 -0.0596212 -1.00354e-21)
(0.186209 -0.055587 7.32216e-21)
(0.18613 -0.0508214 -7.36151e-21)
(0.185715 -0.0454267 -2.04414e-22)
(0.184916 -0.0395377 -2.18022e-19)
(0.183712 -0.0333112 2.17934e-19)
(0.182114 -0.0269137 1.56531e-22)
(0.180158 -0.020508 -4.47551e-21)
(0.177905 -0.0142415 4.45165e-21)
(0.175432 -0.00823836 5.03204e-22)
(0.172822 -0.00259424 -6.46334e-21)
(0.170158 0.00262414 1.37183e-20)
(0.167516 0.00737708 -5.62117e-21)
(0.164964 0.0116479 6.86326e-22)
(0.162555 0.0154384 0)
(0.16033 0.0187641 -6.84111e-22)
(0.158312 0.0216458 -6.53873e-22)
(0.156506 0.0241016 9.67045e-21)
(0.154932 0.0261634 -8.85995e-21)
(0.154079 0.0283473 -1.4892e-21)
(0.182516 -0.0619686 0)
(0.181849 -0.0638669 -5.62047e-23)
(0.181489 -0.0655568 4.02338e-20)
(0.181335 -0.0668639 -4.10135e-20)
(0.181365 -0.0676978 -3.98036e-20)
(0.181567 -0.0679817 6.21518e-20)
(0.181902 -0.0676591 -1.73333e-20)
(0.182344 -0.0666362 -2.23727e-23)
(0.182826 -0.0648375 -2.31019e-21)
(0.183274 -0.0622445 0)
(0.183608 -0.0588544 -8.09853e-21)
(0.183742 -0.0546988 1.57496e-20)
(0.183594 -0.0498469 -7.63338e-21)
(0.183098 -0.0444042 2.13898e-22)
(0.182211 -0.0385061 -2.32662e-19)
(0.180915 -0.0323079 2.3275e-19)
(0.179223 -0.0259721 -1.63793e-22)
(0.177174 -0.019656 -4.4302e-21)
(0.174831 -0.0135009 8.41535e-21)
(0.172268 -0.00762428 -3.98026e-21)
(0.16957 -0.00211542 0)
(0.166819 0.00296458 7.50953e-22)
(0.164091 0.00758082 -7.65904e-23)
(0.161451 0.0117205 -6.02432e-21)
(0.158953 0.0153886 1.46611e-20)
(0.156639 0.0186027 -9.86523e-21)
(0.15453 0.0213851 -9.10066e-21)
(0.152633 0.0237554 9.51103e-21)
(0.15097 0.0257483 -6.51953e-23)
(0.150022 0.0278739 0)
(0.179558 -0.0630659 0)
(0.178904 -0.0647369 -3.9776e-20)
(0.178595 -0.0662305 4.33241e-20)
(0.17849 -0.0673363 3.974e-20)
(0.178562 -0.0679637 -4.32695e-20)
(0.178797 -0.0680406 -2.31757e-20)
(0.179155 -0.0675127 8.25795e-22)
(0.179607 -0.0662749 2.29996e-20)
(0.18008 -0.0642806 4.83475e-21)
(0.180504 -0.0615112 0)
(0.180795 -0.0579697 0)
(0.180871 -0.0536935 -6.8379e-21)
(0.180652 -0.0487568 8.37431e-21)
(0.180076 -0.0432679 0)
(0.179103 -0.0373625 -2.46094e-19)
(0.17772 -0.0311939 2.46091e-19)
(0.175942 -0.0249205 0)
(0.17381 -0.0186942 4.08232e-21)
(0.171386 -0.01265 -4.82909e-21)
(0.168747 -0.00689891 0)
(0.165974 -0.00152429 0)
(0.16315 0.00341809 -1.48512e-21)
(0.160348 0.00789772 4.53714e-21)
(0.157634 0.0119053 -3.02878e-22)
(0.155059 0.0154485 -4.17311e-21)
(0.152665 0.018547 -8.65294e-21)
(0.150475 0.0212241 8.9692e-21)
(0.148494 0.023501 8.09381e-21)
(0.146748 0.0254156 -8.46281e-21)
(0.145707 0.0274671 0)
(0.176183 -0.0640304 0)
(0.175549 -0.0654759 0)
(0.175292 -0.0667763 0)
(0.175236 -0.0676817 -4.20311e-20)
(0.175353 -0.0681015 2.05624e-20)
(0.175614 -0.0679737 2.51308e-20)
(0.175997 -0.06723 2.72474e-21)
(0.176453 -0.0657787 2.05364e-20)
(0.176914 -0.0635891 -1.14579e-21)
(0.177309 -0.0606437 -1.99096e-20)
(0.177555 -0.0569522 -1.13478e-21)
(0.177569 -0.0525584 -2.1179e-21)
(0.177278 -0.0475407 -4.70341e-21)
(0.176624 -0.0420098 3.52294e-21)
(0.175569 -0.0361014 -2.58003e-19)
(0.174104 -0.0299663 2.5801e-19)
(0.172248 -0.0237586 2.56932e-21)
(0.170042 -0.0176245 -1.83918e-21)
(0.16755 -0.0116926 9.93329e-22)
(0.164847 -0.00606763 4.16655e-22)
(0.162015 -0.000827226 -5.88679e-21)
(0.159131 0.00397783 6.40076e-22)
(0.15627 0.00832104 5.19054e-21)
(0.153494 0.0121963 -5.14012e-22)
(0.150856 0.0156134 3.5742e-21)
(0.148394 0.0185938 4.05421e-21)
(0.146132 0.0211618 -7.9338e-21)
(0.144077 0.02334 0)
(0.142256 0.0251692 0)
(0.141124 0.0271347 0)
(0.17235 -0.0648496 -4.77165e-20)
(0.171744 -0.0660712 5.02814e-20)
(0.171542 -0.0671793 0)
(0.171539 -0.0678833 -2.36517e-20)
(0.171699 -0.0680939 2.69028e-20)
(0.17199 -0.0677583 2.27642e-20)
(0.172394 -0.0667918 -2.90235e-20)
(0.172851 -0.0651291 0)
(0.173298 -0.0627441 -2.64482e-21)
(0.17366 -0.0596244 0)
(0.173856 -0.0557865 3.40309e-24)
(0.173808 -0.0512799 9.09973e-24)
(0.173445 -0.0461874 1.00395e-21)
(0.172714 -0.0406215 4.5463e-22)
(0.171581 -0.0347172 -2.6853e-19)
(0.170042 -0.0286223 2.68514e-19)
(0.168116 -0.0224862 -3.16159e-22)
(0.165848 -0.0164491 -5.50372e-22)
(0.163301 -0.0106331 -4.23356e-23)
(0.160548 -0.00513655 -4.51402e-23)
(0.157669 -3.15954e-05 0)
(0.154741 0.00463568 6.68218e-22)
(0.151835 0.00884245 0)
(0.149012 0.0125853 -2.7709e-21)
(0.146323 0.0158761 3.77127e-21)
(0.143807 0.0187374 2.70633e-21)
(0.141484 0.0211942 -3.09278e-21)
(0.139364 0.0232703 0)
(0.137476 0.0250095 6.90624e-21)
(0.136259 0.0268806 -7.28209e-21)
(0.168018 -0.0655073 0)
(0.167448 -0.0665062 7.01879e-23)
(0.167306 -0.0674206 5.33493e-20)
(0.16736 -0.0679205 -5.10266e-20)
(0.167562 -0.0679204 3.12545e-21)
(0.167888 -0.0673686 -6.1233e-21)
(0.168309 -0.0661761 2.98142e-21)
(0.168766 -0.0643034 0)
(0.169195 -0.0617245 0)
(0.169521 -0.058434 0)
(0.169666 -0.0544552 1.22703e-21)
(0.169555 -0.0498435 -7.47926e-21)
(0.16912 -0.0446852 1.20626e-20)
(0.168315 -0.0390942 -5.90303e-21)
(0.16711 -0.0332041 -2.75106e-19)
(0.165503 -0.0271593 2.78181e-19)
(0.163518 -0.0211035 -3.49531e-21)
(0.161199 -0.0151708 6.53283e-21)
(0.15861 -0.00947644 -4.39775e-21)
(0.155821 -0.00411262 -4.04851e-22)
(0.152911 0.000854152 -2.93326e-22)
(0.149954 0.00538217 0)
(0.147018 0.00945195 0)
(0.144163 0.0130624 -4.49067e-22)
(0.141437 0.016227 6.88928e-22)
(0.138878 0.018969 -2.52617e-22)
(0.136507 0.021314 -4.40888e-21)
(0.134333 0.0232865 4.10253e-21)
(0.132388 0.0249329 1.02728e-22)
(0.131092 0.0267044 0)
(0.163139 -0.0659808 -5.26189e-20)
(0.162614 -0.0667607 4.8785e-20)
(0.162539 -0.0674767 2.30748e-20)
(0.162654 -0.0677668 -2.6847e-20)
(0.162901 -0.0675548 -2.87895e-20)
(0.163263 -0.0667747 2.95188e-20)
(0.163701 -0.0653588 2.44803e-20)
(0.164156 -0.0632766 -2.18935e-20)
(0.164565 -0.0605067 1.26048e-20)
(0.164853 -0.0570508 -1.13194e-20)
(0.164945 -0.0529395 1.09506e-20)
(0.164769 -0.0482332 -5.36273e-21)
(0.164266 -0.0430215 -3.93266e-21)
(0.16339 -0.0374187 2.31604e-22)
(0.162118 -0.0315564 -2.8281e-19)
(0.160453 -0.0255745 2.82788e-19)
(0.158419 -0.0196111 -1.45905e-22)
(0.156063 -0.013793 -2.10379e-21)
(0.153445 -0.0082287 -1.21649e-21)
(0.150636 -0.00300396 3.0336e-21)
(0.147711 0.00182013 -1.70826e-21)
(0.14474 0.00620611 1.7927e-21)
(0.14179 0.0101375 -2.90628e-21)
(0.138918 0.0136153 2.56575e-21)
(0.136169 0.0166539 1.48565e-21)
(0.133581 0.0192771 -1.484e-21)
(0.131174 0.0215105 -1.3233e-21)
(0.128956 0.0233793 1.50125e-21)
(0.126963 0.0249318 4.56361e-21)
(0.125598 0.026601 -4.36631e-21)
(0.15766 -0.066243 -3.45843e-21)
(0.157189 -0.0668074 -5.47968e-20)
(0.157189 -0.0673168 6.02781e-20)
(0.15737 -0.067392 0)
(0.157668 -0.0669602 -3.4659e-21)
(0.158067 -0.0659459 0)
(0.158521 -0.0643083 -3.31561e-21)
(0.158973 -0.0620188 2.4525e-20)
(0.159359 -0.059063 -2.6431e-20)
(0.159607 -0.0554504 1.41531e-21)
(0.159645 -0.0512181 -2.61957e-21)
(0.159407 -0.0464315 -1.18914e-21)
(0.158836 -0.0411824 -5.41822e-22)
(0.157894 -0.0355849 -2.40398e-22)
(0.156563 -0.0297678 -2.85836e-19)
(0.154849 -0.0238657 2.85826e-19)
(0.152779 -0.0180099 1.51445e-22)
(0.150398 -0.01232 2.50504e-22)
(0.147767 -0.00689708 -3.48915e-22)
(0.144954 -0.00182033 0)
(0.14203 0.00285451 -1.89607e-22)
(0.139063 0.00709402 -2.09396e-21)
(0.136115 0.0108845 2.39008e-21)
(0.133241 0.0142284 8.91378e-23)
(0.130485 0.0171411 0)
(0.127881 0.0196463 -2.60493e-24)
(0.12545 0.0217691 0)
(0.1232 0.0235349 7.83255e-22)
(0.12117 0.0249938 -7.16011e-22)
(0.119743 0.0265602 1.74423e-22)
(0.151517 -0.0662606 -5.44581e-20)
(0.151113 -0.0666062 5.72123e-20)
(0.151197 -0.0669006 9.66634e-23)
(0.151447 -0.0667575 3.22056e-20)
(0.151806 -0.0660923 -5.41325e-20)
(0.152242 -0.064845 3.25921e-20)
(0.152712 -0.0629873 3.413e-21)
(0.15316 -0.060495 3.816e-23)
(0.153522 -0.0573616 0)
(0.153728 -0.0536043 -1.46159e-21)
(0.153711 -0.0492666 -7.53496e-21)
(0.15341 -0.0444181 1.15809e-20)
(0.152775 -0.0391524 5.39025e-22)
(0.151773 -0.033582 -1.53055e-21)
(0.150391 -0.027832 -2.83724e-19)
(0.148639 -0.0220308 2.86734e-19)
(0.146545 -0.0163022 -1.36185e-21)
(0.144155 -0.0107576 -2.01682e-22)
(0.141528 -0.00549073 2.65005e-21)
(0.138728 -0.000573825 -2.26293e-21)
(0.135822 0.00394269 1.95807e-22)
(0.132876 0.00802929 0)
(0.129948 0.0116747 1.67821e-22)
(0.127089 0.0148827 -9.17555e-23)
(0.124341 0.0176689 -3.44089e-22)
(0.121736 0.0200566 1.20246e-21)
(0.119294 0.02207 -5.30756e-22)
(0.117025 0.0237345 1.57793e-22)
(0.114968 0.0251009 2.39099e-22)
(0.113489 0.0265656 -4.20596e-22)
(0.144635 -0.0659859 0)
(0.144314 -0.0661067 0)
(0.14449 -0.0661778 -3.38546e-20)
(0.144819 -0.0658085 2.73601e-20)
(0.145241 -0.0649031 0)
(0.145716 -0.0634251 -3.66611e-21)
(0.146203 -0.0613506 -3.61492e-21)
(0.146646 -0.0586629 -3.40854e-21)
(0.146981 -0.055364 0)
(0.147144 -0.0514787 0)
(0.147071 -0.0470564 -1.38658e-21)
(0.146709 -0.04217 5.29124e-21)
(0.146013 -0.0369138 -5.81555e-21)
(0.144958 -0.031398 -2.41452e-22)
(0.143535 -0.0257424 -2.8132e-19)
(0.141757 -0.0200684 2.81385e-19)
(0.139655 -0.0144913 1.35185e-22)
(0.137272 -0.00911389 -9.32753e-22)
(0.134666 -0.00402165 1.30242e-21)
(0.131898 0.000720012 0)
(0.129031 0.00506609 0)
(0.126126 0.00899076 0)
(0.123236 0.012485 0)
(0.120409 0.0155534 -2.53225e-22)
(0.117686 0.0182115 -1.28192e-22)
(0.115096 0.0204816 0)
(0.112657 0.022387 -2.52665e-21)
(0.110381 0.0239521 2.05394e-21)
(0.108307 0.025228 0)
(0.106785 0.0265932 0)
(0.136922 -0.0653544 -3.98808e-21)
(0.136702 -0.0652428 0)
(0.136981 -0.0650861 0)
(0.137401 -0.0644763 0)
(0.137889 -0.0633312 0)
(0.138405 -0.0616254 0)
(0.138907 -0.0593408 3.69198e-21)
(0.139342 -0.0564699 1.79078e-21)
(0.139648 -0.0530231 -1.27799e-20)
(0.139765 -0.0490328 2.80755e-21)
(0.139637 -0.0445532 2.40049e-20)
(0.139215 -0.0396599 -1.61223e-20)
(0.138463 -0.0344465 7.02196e-22)
(0.137362 -0.0290196 4.09608e-21)
(0.13591 -0.0234926 -2.723e-19)
(0.13412 -0.0179784 2.72257e-19)
(0.132026 -0.0125831 1.56882e-21)
(0.12967 -0.00740007 -5.56738e-22)
(0.127106 -0.0025061 -2.17924e-21)
(0.124391 0.00204053 1.4436e-21)
(0.121584 0.0062002 -6.04898e-22)
(0.11874 0.00995069 3.1003e-22)
(0.11591 0.0132848 1.90069e-22)
(0.113136 0.0162079 2.58621e-22)
(0.110455 0.0187347 0)
(0.107897 0.0208863 0)
(0.105477 0.0226842 0)
(0.103206 0.0241518 0)
(0.101127 0.0253396 0)
(0.0995729 0.0266081 -3.54344e-22)
(0.128268 -0.0642792 8.21507e-21)
(0.128169 -0.0639289 -3.2788e-20)
(0.128564 -0.0635322 3.40667e-20)
(0.129081 -0.0626759 0)
(0.129637 -0.0612945 -3.20388e-20)
(0.130194 -0.0593669 3.70272e-20)
(0.13071 -0.0568845 -3.17094e-20)
(0.131133 -0.0538492 2.68279e-20)
(0.131406 -0.05028 0)
(0.131475 -0.0462158 1.04058e-20)
(0.13129 -0.0417153 -2.8826e-21)
(0.130811 -0.0368552 -1.56109e-20)
(0.13001 -0.0317271 5.3139e-21)
(0.128874 -0.0264323 1.64792e-21)
(0.127404 -0.0210765 -2.59073e-19)
(0.12562 -0.015763 2.56335e-19)
(0.123553 -0.0105874 9.53632e-22)
(0.121245 -0.00563275 5.64788e-22)
(0.118746 -0.000966907 -1.10166e-21)
(0.11611 0.0033593 9.67095e-22)
(0.113388 0.00731169 -5.11972e-22)
(0.11063 0.0108715 -2.49489e-22)
(0.107882 0.0140331 -4.89345e-21)
(0.105183 0.0168019 3.91946e-21)
(0.102567 0.0191919 -4.66071e-21)
(0.100059 0.0212223 5.29336e-21)
(0.0976745 0.0229123 0)
(0.0954252 0.0242836 -5.60043e-21)
(0.0933538 0.0253856 5.42223e-21)
(0.0917779 0.0265605 9.5567e-22)
(0.118532 -0.062637 2.61957e-20)
(0.118574 -0.0620407 -3.41023e-20)
(0.119099 -0.0613923 -3.00756e-20)
(0.119716 -0.0602927 3.57407e-20)
(0.120342 -0.0586808 3.75715e-20)
(0.120937 -0.0565444 -7.46308e-20)
(0.121462 -0.0538851 5.23228e-20)
(0.121867 -0.0507141 -1.38553e-20)
(0.122102 -0.0470587 0)
(0.12212 -0.0429637 -1.2136e-20)
(0.121878 -0.0384907 1.09153e-20)
(0.121345 -0.0337162 -6.26049e-22)
(0.120502 -0.0287279 -1.94732e-21)
(0.119342 -0.0236205 2.74179e-21)
(0.117872 -0.0184898 -2.36139e-19)
(0.116113 -0.0134283 2.3494e-19)
(0.114097 -0.00851995 8.65303e-22)
(0.111863 -0.00383688 -4.59827e-22)
(0.109458 0.000562798 -3.08197e-23)
(0.106928 0.00463585 -1.68287e-21)
(0.104319 0.00835352 1.69905e-21)
(0.101676 0.0117003 6.41486e-22)
(0.0990388 0.0146719 3.58998e-21)
(0.0964415 0.0172735 -9.52905e-21)
(0.093914 0.0195177 1.2786e-20)
(0.0914797 0.0214213 -6.30129e-21)
(0.0891517 0.0230009 -8.03123e-21)
(0.086942 0.024276 7.7742e-21)
(0.0848938 0.0252936 6.49755e-21)
(0.0833084 0.0263774 -8.10361e-21)
(0.107529 -0.0602466 4.09343e-20)
(0.107735 -0.0593939 4.81031e-21)
(0.108394 -0.0584974 -5.72954e-21)
(0.109112 -0.0571612 -3.71976e-20)
(0.109804 -0.0553338 -4.35294e-21)
(0.110431 -0.053013 6.40245e-21)
(0.110955 -0.0502108 5.73808e-23)
(0.111334 -0.046948 0)
(0.111524 -0.0432589 0)
(0.111486 -0.039193 -1.21784e-20)
(0.111188 -0.0348133 1.38628e-20)
(0.110607 -0.030194 6.30513e-22)
(0.109732 -0.025417 0)
(0.108563 -0.020568 5.20456e-22)
(0.107114 -0.0157317 -2.05906e-19)
(0.105406 -0.0109878 2.04835e-19)
(0.10347 -0.00640756 3.44427e-22)
(0.101343 -0.00205119 0)
(0.0990646 0.00203328 3.10393e-23)
(0.0966758 0.00581046 -2.3553e-21)
(0.0942161 0.00925701 2.1979e-21)
(0.0917228 0.0123604 -3.90593e-22)
(0.0892296 0.0151175 0)
(0.0867662 0.0175327 1.6878e-22)
(0.0843581 0.0196167 1.79171e-21)
(0.0820256 0.0213836 -1.121e-21)
(0.0797802 0.0228468 1.0527e-20)
(0.0776333 0.0240229 -1.33488e-23)
(0.0756281 0.0249559 4.36373e-22)
(0.0740491 0.0259493 -8.16857e-21)
(0.0950083 -0.0568264 -3.82538e-20)
(0.0953928 -0.0557263 3.27337e-20)
(0.0961851 -0.054591 0)
(0.0969964 -0.0530378 -3.40804e-20)
(0.0977421 -0.0510264 4.009e-20)
(0.0983855 -0.0485654 -1.909e-20)
(0.0988956 -0.0456768 3.13841e-20)
(0.0992359 -0.0423898 -1.44707e-20)
(0.0993717 -0.0387445 0)
(0.0992737 -0.0347931 0)
(0.0989204 -0.0305978 5.93156e-21)
(0.0982996 -0.026228 -5.9037e-21)
(0.0974086 -0.0217577 0)
(0.0962548 -0.017261 1.96224e-22)
(0.0948542 -0.0128095 -1.6482e-19)
(0.0932305 -0.00846857 1.64786e-19)
(0.0914125 -0.00429547 -3.66765e-23)
(0.0894325 -0.000337787 0)
(0.0873241 0.00336704 1.21059e-21)
(0.0851207 0.00679163 -1.11251e-21)
(0.0828544 0.00991791 0)
(0.0805548 0.0127362 0)
(0.078249 0.0152438 6.76745e-21)
(0.075961 0.0174442 -1.27602e-20)
(0.073712 0.0193454 5.41364e-21)
(0.0715186 0.0209586 -1.23897e-20)
(0.0693905 0.0222934 1.38193e-20)
(0.0673383 0.0233631 0)
(0.0654043 0.0242075 -1.2977e-20)
(0.0638538 0.0251072 1.02543e-20)
(0.0806106 -0.0519293 -3.75232e-20)
(0.0811714 -0.0506101 3.64984e-20)
(0.0820793 -0.049268 -3.86876e-20)
(0.0829604 -0.0475455 6.23389e-23)
(0.0837341 -0.0454145 4.21393e-22)
(0.0843697 -0.0428934 5.69943e-20)
(0.0848433 -0.0400129 -1.7789e-20)
(0.0851279 -0.0368087 -1.9511e-21)
(0.0851991 -0.0333246 1.34426e-20)
(0.0850392 -0.0296128 -2.55691e-20)
(0.0846379 -0.0257317 1.20338e-20)
(0.0839933 -0.0217433 4.63581e-21)
(0.0831113 -0.0177102 -5.64128e-21)
(0.0820052 -0.013693 2.06744e-21)
(0.0806941 -0.00974761 -1.12923e-19)
(0.0792013 -0.00592365 1.1228e-19)
(0.0775524 -0.00226322 -2.95109e-22)
(0.0757741 0.00119942 1.7886e-21)
(0.0738926 0.00443768 -1.25179e-21)
(0.071933 0.00743218 -5.28434e-21)
(0.0699188 0.01017 1.16055e-20)