/*--------------------------------*- C++ -*----------------------------------*\
  =========                 |
  \\      /  F ield         | OpenFOAM: The Open Source CFD Toolbox
   \\    /   O peration     | Website:  https://openfoam.org
    \\  /    A nd           | Version:  12
     \\/     M anipulation  |
\*---------------------------------------------------------------------------*/
FoamFile
{
    format      ascii;
    class       volVectorField;
    location    "300";
    object      UMean;
}
// * * * * * * * * * * * * * * * * * * * * * * * * * * * * * * * * * * * * * //

dimensions      [0 1 -1 0 0 0 0];

internalField   nonuniform List<vector> 
6750
(
(0.200072 -0.0030831 0)
(0.200365 -0.00937973 0)
(0.200657 -0.0151452 0)
(0.200908 -0.0204619 0)
(0.200803 -0.0254301 0)
(0.200037 -0.003468 0)
(0.200283 -0.00999085 0)
(0.200491 -0.0156926 0)
(0.200576 -0.0207325 0)
(0.20047 -0.0252038 0)
(0.200026 -0.00363299 0)
(0.20013 -0.0102245 0)
(0.20015 -0.0158025 0)
(0.200035 -0.0205651 0)
(0.199801 -0.0246183 0)
(0.20001 -0.00366745 0)
(0.19996 -0.0101792 0)
(0.199787 -0.0155699 0)
(0.19949 -0.0200749 0)
(0.199124 -0.0238362 0)
(0.199995 -0.00360053 0)
(0.199804 -0.00990366 0)
(0.199446 -0.0150511 0)
(0.198971 -0.0193043 0)
(0.198458 -0.0228297 0)
(0.199983 -0.00344961 0)
(0.199661 -0.00943236 0)
(0.199126 -0.0142792 0)
(0.198469 -0.0182626 0)
(0.19779 -0.0215573 0)
(0.199973 -0.00322905 0)
(0.199528 -0.00879268 0)
(0.198818 -0.0132796 0)
(0.197975 -0.0169595 0)
(0.197117 -0.0200044 0)
(0.199963 -0.00294993 0)
(0.199401 -0.00800754 0)
(0.198522 -0.0120761 0)
(0.197492 -0.015412 0)
(0.196448 -0.0181769 0)
(0.199955 -0.00262193 0)
(0.199282 -0.00709964 0)
(0.198243 -0.010697 0)
(0.197033 -0.0136485 0)
(0.195805 -0.0161001 0)
(0.199947 -0.00225491 0)
(0.199175 -0.0060938 0)
(0.197989 -0.00917615 0)
(0.196614 -0.0117079 0)
(0.195216 -0.0138156 0)
(0.199941 -0.00185932 0)
(0.199083 -0.00501699 0)
(0.19777 -0.00755235 0)
(0.196253 -0.00963717 0)
(0.194703 -0.0113763 0)
(0.199936 -0.00144593 0)
(0.199009 -0.00389706 0)
(0.197593 -0.00586628 0)
(0.19596 -0.00748699 0)
(0.194287 -0.00884109 0)
(0.199933 -0.00102517 0)
(0.198955 -0.00276108 0)
(0.197463 -0.00415786 0)
(0.195743 -0.00530748 0)
(0.193978 -0.00626888 0)
(0.199929 -0.000606353 0)
(0.198923 -0.00163393 0)
(0.19738 -0.00246326 0)
(0.195604 -0.00314438 0)
(0.193779 -0.00371417 0)
(0.199919 -0.000201225 0)
(0.198918 -0.000535283 0)
(0.197343 -0.000811299 0)
(0.19554 -0.0010359 0)
(0.193685 -0.00122358 0)
(0.199919 0.000201183 0)
(0.198918 0.000535294 0)
(0.197343 0.000811405 0)
(0.19554 0.00103611 0)
(0.193685 0.00122389 0)
(0.199929 0.00060631 0)
(0.198923 0.00163394 0)
(0.19738 0.00246337 0)
(0.195604 0.00314459 0)
(0.193779 0.00371448 0)
(0.199933 0.00102513 0)
(0.198955 0.00276109 0)
(0.197463 0.00415796 0)
(0.195743 0.00530769 0)
(0.193978 0.00626919 0)
(0.199936 0.00144589 0)
(0.199009 0.00389707 0)
(0.197593 0.00586639 0)
(0.19596 0.00748721 0)
(0.194287 0.0088414 0)
(0.199941 0.00185928 0)
(0.199083 0.00501701 0)
(0.19777 0.00755246 0)
(0.196253 0.00963739 0)
(0.194703 0.0113766 0)
(0.199947 0.00225487 0)
(0.199175 0.00609382 0)
(0.197989 0.00917627 0)
(0.196614 0.0117081 0)
(0.195216 0.0138159 0)
(0.199955 0.0026219 0)
(0.199282 0.00709966 0)
(0.198243 0.0106971 0)
(0.197033 0.0136487 0)
(0.195805 0.0161004 0)
(0.199963 0.0029499 0)
(0.199401 0.00800757 0)
(0.198522 0.0120762 0)
(0.197492 0.0154123 0)
(0.196448 0.0181773 0)
(0.199973 0.00322903 0)
(0.199528 0.00879271 0)
(0.198818 0.0132797 0)
(0.197975 0.0169597 0)
(0.197117 0.0200048 0)
(0.199983 0.00344959 0)
(0.199661 0.0094324 0)
(0.199126 0.0142794 0)
(0.198469 0.0182628 0)
(0.19779 0.0215576 0)
(0.199995 0.00360053 0)
(0.199804 0.00990371 0)
(0.199446 0.0150512 0)
(0.198971 0.0193045 0)
(0.198458 0.02283 0)
(0.20001 0.00366746 0)
(0.19996 0.0101792 0)
(0.199787 0.0155701 0)
(0.19949 0.0200752 0)
(0.199124 0.0238365 0)
(0.200026 0.003633 0)
(0.20013 0.0102246 0)
(0.20015 0.0158026 0)
(0.200035 0.0205653 0)
(0.199801 0.0246185 0)
(0.200037 0.00346802 0)
(0.200283 0.00999092 0)
(0.200491 0.0156927 0)
(0.200576 0.0207327 0)
(0.20047 0.025204 0)
(0.200072 0.00308311 0)
(0.200365 0.0093798 0)
(0.200657 0.0151453 0)
(0.200908 0.0204621 0)
(0.200803 0.0254303 0)
(0.198849 -0.0365069 0)
(0.197286 -0.0417033 0)
(0.195978 -0.0464317 0)
(0.195103 -0.0506481 1.09939e-22)
(0.194519 -0.054251 0)
(0.194171 -0.0571859 0)
(0.194045 -0.0593919 -7.80606e-21)
(0.19413 -0.0607793 7.88452e-21)
(0.194401 -0.0612393 6.73493e-23)
(0.194795 -0.0607146 4.27167e-21)
(0.195282 -0.0590702 4.29768e-23)
(0.195783 -0.0561844 2.18388e-23)
(0.19622 -0.0521123 -2.23547e-21)
(0.196511 -0.0469217 -2.23526e-21)
(0.196582 -0.0407536 -5.219e-21)
(0.19638 -0.0338149 5.22088e-21)
(0.195874 -0.0263613 -2.0658e-21)
(0.195067 -0.0186705 -1.86638e-21)
(0.193989 -0.0110195 2.02526e-22)
(0.192689 -0.0036587 2.37779e-22)
(0.191224 0.00320822 3.48069e-21)
(0.18967 0.00946642 -4.95061e-23)
(0.188111 0.014999 5.33021e-21)
(0.186607 0.019756 -5.28307e-21)
(0.185209 0.0237326 0)
(0.183959 0.0269545 0)
(0.182885 0.0294666 -5.4593e-23)
(0.182014 0.0313256 0)
(0.181371 0.0325949 0)
(0.180936 0.0333093 0)
(0.198044 -0.0396796 0)
(0.196638 -0.0447807 0)
(0.195601 -0.0490967 0)
(0.194904 -0.0528316 -1.03944e-22)
(0.194432 -0.0559749 0)
(0.194171 -0.0584905 0)
(0.19412 -0.060312 8.42199e-21)
(0.194264 -0.0613473 -8.64036e-21)
(0.194578 -0.0614962 -6.34067e-23)
(0.194998 -0.0607153 0)
(0.195493 -0.0588469 0)
(0.19598 -0.0558278 -4.10144e-21)
(0.19639 -0.0517082 4.11435e-21)
(0.196646 -0.0465579 0)
(0.196681 -0.0405117 -1.36648e-20)
(0.196447 -0.0337606 1.36659e-20)
(0.195921 -0.0265363 0)
(0.195106 -0.0190912 3.64183e-21)
(0.19403 -0.011674 -3.66158e-21)
(0.192741 -0.00451158 0)
(0.1913 0.00221073 0)
(0.189771 0.00837252 4.64688e-23)
(0.188221 0.0138703 -5.3003e-21)
(0.186717 0.018652 5.33779e-21)
(0.185308 0.0227045 0)
(0.184031 0.0260441 0)
(0.182914 0.028707 5.14411e-23)
(0.181979 0.030741 0)
(0.181255 0.0322066 0)
(0.180746 0.0331702 0)
(0.197283 -0.0421282 0)
(0.196176 -0.0467443 0)
(0.19531 -0.0506665 0)
(0.1947 -0.0540899 9.08745e-21)
(0.194298 -0.0569717 -9.18783e-21)
(0.194108 -0.059253 9.599e-21)
(0.194124 -0.0608559 -9.68922e-21)
(0.19433 -0.0616869 1.44833e-22)
(0.194693 -0.0616541 0)
(0.195153 -0.0607153 0)
(0.195673 -0.0587032 -1.4441e-22)
(0.196167 -0.0555954 0)
(0.196568 -0.0514334 0)
(0.196799 -0.0462896 -3.21841e-23)
(0.196796 -0.0402967 -2.19435e-20)
(0.196513 -0.0336389 2.19442e-20)
(0.195932 -0.0265371 2.77508e-23)
(0.19506 -0.0192291 0)
(0.193928 -0.0119491 0)
(0.192587 -0.00490867 9.27111e-23)
(0.191097 0.00171785 0)
(0.189525 0.00779797 0)
(0.187937 0.0132492 -8.61117e-23)
(0.186395 0.0180196 -4.4736e-21)
(0.184945 0.0220931 4.43196e-21)
(0.183625 0.0254816 -3.61999e-21)
(0.182461 0.0282161 3.56896e-21)
(0.181469 0.0303381 0)
(0.180683 0.0319086 0)
(0.180165 0.0330519 0)
(0.196606 -0.0443246 0)
(0.19571 -0.0485425 -2.05206e-20)
(0.194942 -0.0521509 1.02989e-20)
(0.194399 -0.0553028 2.16112e-20)
(0.194068 -0.0579367 -2.18765e-20)
(0.193948 -0.0599857 1.08776e-20)
(0.194031 -0.0613692 0)
(0.194302 -0.061995 3.40659e-22)
(0.194713 -0.0617864 0)
(0.195224 -0.0606823 0)
(0.195775 -0.0585314 5.1331e-21)
(0.196285 -0.0553373 -4.84831e-21)
(0.196685 -0.051134 0)
(0.196893 -0.045997 3.37891e-23)
(0.196847 -0.0400572 -2.96393e-20)
(0.196504 -0.0334923 2.96423e-20)
(0.195848 -0.0265128 -2.91363e-23)
(0.19489 -0.0193437 0)
(0.193667 -0.0122049 -3.00262e-21)
(0.192232 -0.00529519 2.80808e-21)
(0.190652 0.00122115 7.63943e-23)
(0.188995 0.00722012 0)
(0.187329 0.0126193 -1.26547e-22)
(0.185713 0.0173705 0)
(0.184195 0.021457 3.46448e-21)
(0.182813 0.024888 -6.37456e-21)
(0.181589 0.0276897 5.57189e-21)
(0.180537 0.0298976 1.97873e-21)
(0.179688 0.0315688 -4.53239e-21)
(0.17918 0.0328905 0)
(0.195907 -0.046414 0)
(0.195138 -0.0502887 2.41758e-20)
(0.19445 -0.0536069 -2.37406e-20)
(0.193979 -0.0564931 0)
(0.19372 -0.0588808 0)
(0.19367 -0.0606989 3.90565e-22)
(0.193819 -0.0618646 0)
(0.194153 -0.0622869 -3.5683e-22)
(0.194617 -0.0619051 5.56483e-21)
(0.195178 -0.0606302 -5.66038e-21)
(0.19576 -0.0583436 -5.32906e-21)
(0.196288 -0.0550589 5.18966e-21)
(0.196683 -0.0508086 1.4773e-22)
(0.196865 -0.0456711 -6.83094e-23)
(0.196771 -0.0397759 -3.67501e-20)
(0.196359 -0.0332952 3.67544e-20)
(0.195615 -0.0264306 5.15491e-23)
(0.194556 -0.0193954 -9.27666e-23)
(0.193222 -0.0123968 2.72922e-21)
(0.191672 -0.00562118 -2.62847e-21)
(0.189976 0.000777403 -2.31762e-21)
(0.188208 0.00668293 2.22161e-21)
(0.186436 0.0120167 1.32621e-22)
(0.184722 0.0167334 0)
(0.183115 0.020817 -8.31349e-23)
(0.181652 0.0242749 0)
(0.180355 0.0271301 0)
(0.179232 0.0294124 -3.83976e-21)
(0.178315 0.0311737 3.68971e-21)
(0.177813 0.0326636 0)
(0.195115 -0.0484011 2.60569e-20)
(0.194427 -0.0519514 -4.08917e-20)
(0.193816 -0.0549941 1.34251e-20)
(0.193418 -0.0576275 0)
(0.193229 -0.0597804 1.3424e-20)
(0.193247 -0.0613772 -1.31283e-20)
(0.193462 -0.0623335 1.26379e-20)
(0.193858 -0.062561 -1.30662e-20)
(0.194375 -0.0620086 0)
(0.194981 -0.0605627 -3.79243e-22)
(0.195592 -0.0581428 5.50027e-21)
(0.196132 -0.0547635 -2.96142e-21)
(0.196518 -0.0504588 -5.16354e-22)
(0.196669 -0.0453098 -2.30349e-21)
(0.19652 -0.0394457 -4.32462e-20)
(0.196031 -0.0330346 4.32439e-20)
(0.195193 -0.0262709 -1.61936e-21)
(0.194025 -0.0193578 3.5795e-22)
(0.19257 -0.0124915 -1.06681e-21)
(0.190894 -0.00584721 2.43575e-21)
(0.189071 0.000430903 1.11861e-22)
(0.187176 0.00623431 0)
(0.185284 0.0114897 -2.93152e-21)
(0.183455 0.0161555 2.97461e-21)
(0.181742 0.020217 -2.28676e-21)
(0.180182 0.0236813 2.22355e-21)
(0.178798 0.0265694 8.91906e-23)
(0.177596 0.0289066 1.4475e-21)
(0.176601 0.0307391 -4.62395e-21)
(0.17609 0.0323748 3.4111e-21)
(0.194188 -0.0502742 -1.41584e-20)
(0.193556 -0.0535169 1.59901e-20)
(0.193016 -0.0563035 1.58822e-20)
(0.192689 -0.0587009 -1.61005e-20)
(0.192569 -0.0606321 1.48273e-20)
(0.192653 -0.0620178 -1.59167e-20)
(0.192934 -0.0627733 -4.85296e-22)
(0.193388 -0.0628146 0)
(0.193956 -0.0620915 6.5388e-21)
(0.194601 -0.0604762 -1.981e-23)
(0.195235 -0.057924 -6.93612e-23)
(0.195781 -0.0544456 -6.04238e-21)
(0.196151 -0.0500787 -2.28571e-21)
(0.196263 -0.0449073 3.55219e-21)
(0.196054 -0.0390607 -5.00753e-20)
(0.195485 -0.0327045 4.81208e-20)
(0.194549 -0.0260268 2.32262e-21)
(0.193268 -0.0192229 -1.63834e-21)
(0.19169 -0.0124794 -2.14447e-21)
(0.189885 -0.00596129 2.11841e-22)
(0.187928 0.000196183 1.57207e-22)
(0.185902 0.00589203 1.51381e-21)
(0.183881 0.0110588 0)
(0.181929 0.0156589 1.83266e-23)
(0.1801 0.0196802 -1.38652e-21)
(0.178433 0.0231305 1.49601e-21)
(0.17695 0.0260296 -1.05725e-21)
(0.175658 0.0284002 9.6328e-22)
(0.174578 0.0302832 1.20971e-21)
(0.174039 0.0320363 -1.35706e-21)
(0.193093 -0.0520332 0)
(0.192499 -0.0549891 1.5408e-20)
(0.192028 -0.0575406 -1.87458e-20)
(0.191768 -0.0597177 1.74576e-20)
(0.191715 -0.0614385 -1.66793e-20)
(0.191865 -0.0626216 1.49402e-20)
(0.192209 -0.0631828 -1.51441e-20)
(0.192713 -0.0630453 -9.68871e-22)
(0.19333 -0.0621462 -4.62373e-22)
(0.194008 -0.0603643 -4.37086e-22)
(0.194658 -0.057679 -4.00398e-22)
(0.195202 -0.0540966 1.84734e-22)
(0.195548 -0.0496596 -2.68712e-21)
(0.195615 -0.0444556 1.41698e-21)
(0.19534 -0.0386146 -5.28627e-20)
(0.194688 -0.0322999 5.479e-20)
(0.193652 -0.0256951 5.51336e-22)
(0.192259 -0.0189885 -1.21074e-21)
(0.19056 -0.0123582 5.6257e-23)
(0.188626 -0.00596061 2.00268e-22)
(0.186538 7.76146e-05 6.3807e-23)
(0.18438 0.00566272 4.53828e-23)
(0.182229 0.0107331 6.11037e-23)
(0.180151 0.0152557 -1.04742e-21)
(0.178202 0.0192211 9.57414e-22)
(0.176421 0.0226387 -4.57022e-22)
(0.174833 0.0255282 4.0346e-22)
(0.173443 0.0279108 -1.57423e-22)
(0.172271 0.0298238 2.04217e-22)
(0.171685 0.0316642 0)
(0.191797 -0.0536837 0)
(0.191233 -0.0563743 1.16526e-21)
(0.190825 -0.0587094 -1.58314e-20)
(0.190631 -0.0606795 3.90437e-22)
(0.190643 -0.0621994 1.8283e-20)
(0.190855 -0.0631867 1.08545e-21)
(0.19126 -0.0635572 1.08812e-21)
(0.191808 -0.0632458 -6.94651e-21)
(0.192469 -0.0621657 8.60155e-21)
(0.19317 -0.0602207 -8.51467e-24)
(0.19383 -0.0573984 -3.25122e-21)
(0.194362 -0.0537066 3.27075e-21)
(0.194677 -0.0491924 -1.12077e-21)
(0.194693 -0.0439467 1.29889e-21)
(0.194349 -0.0381007 -5.81433e-20)
(0.193611 -0.0318163 5.81385e-20)
(0.192476 -0.025273 6.26641e-22)
(0.190973 -0.0186531 -6.9956e-22)
(0.189156 -0.0121274 6.65373e-22)
(0.187099 -0.00584435 -8.71532e-22)
(0.184886 7.71147e-05 -3.06433e-23)
(0.1826 0.00555012 3.58073e-22)
(0.180322 0.0105188 -4.49587e-22)
(0.178121 0.0149545 2.40999e-23)
(0.176051 0.0188511 -2.05177e-23)
(0.174155 0.0222198 -4.53573e-22)
(0.172458 0.0250813 -1.71654e-22)
(0.170966 0.027456 6.97921e-22)
(0.169696 0.0293793 0)
(0.169048 0.0312769 0)
(0.19027 -0.0552318 0)
(0.189729 -0.0576771 -2.09963e-20)
(0.189384 -0.0598116 3.90599e-22)
(0.189253 -0.0615858 4.93571e-22)
(0.189327 -0.0629121 3.80112e-20)
(0.189599 -0.0637087 -1.96001e-20)
(0.190057 -0.0638928 -1.13717e-21)
(0.190649 -0.0634059 0)
(0.191344 -0.0621421 7.57878e-21)
(0.192061 -0.0600342 -7.71552e-21)
(0.192721 -0.0570713 3.41794e-21)
(0.193235 -0.053265 -3.94401e-22)
(0.19351 -0.0486672 -3.05983e-21)
(0.193469 -0.0433723 7.539e-23)
(0.193052 -0.0375127 -6.13914e-20)
(0.192227 -0.0312493 6.14132e-20)
(0.190995 -0.0247581 -3.74145e-23)
(0.189386 -0.0182161 -8.02336e-22)
(0.187458 -0.0117874 2.757e-22)
(0.185285 -0.00561323 6.17094e-22)
(0.182953 0.000194504 -2.1967e-22)
(0.180549 0.00555537 1.46766e-22)
(0.178151 0.0104189 0)
(0.175831 0.0147609 -2.52151e-23)
(0.173646 0.0185785 1.31818e-21)
(0.171637 0.0218852 -2.905e-21)
(0.169831 0.0247025 -1.52186e-22)
(0.168234 0.0270514 -5.78477e-23)
(0.166865 0.0289668 1.54262e-21)
(0.16614 0.0308934 0)
(0.188481 -0.0566832 -2.80967e-21)
(0.187962 -0.0589007 0)
(0.187677 -0.060847 -1.33337e-21)
(0.187608 -0.0624339 1.99399e-20)
(0.187741 -0.0635722 -2.17232e-20)
(0.18807 -0.0641811 2.03411e-20)
(0.188574 -0.0641824 -2.04849e-20)
(0.189207 -0.0635138 -9.19655e-21)
(0.189927 -0.0620649 1.91488e-20)
(0.190653 -0.0597929 -2.60577e-22)
(0.191304 -0.056686 -7.5442e-21)
(0.19179 -0.0527606 3.15705e-21)
(0.19202 -0.0480739 -1.81862e-21)
(0.191917 -0.0427238 -2.00124e-21)
(0.191424 -0.0368441 -6.30857e-20)
(0.190513 -0.0305947 6.39593e-20)
(0.189186 -0.0241486 -7.89221e-22)
(0.187476 -0.0176775 -1.27791e-22)
(0.185444 -0.0113396 6.09117e-22)
(0.183164 -0.00526945 -1.05124e-22)
(0.180723 0.000427664 4.59305e-22)
(0.178209 0.0056772 -9.92992e-22)
(0.175701 0.0104338 6.94867e-22)
(0.173271 0.0146774 2.27075e-21)
(0.170976 0.0184084 -2.23928e-21)
(0.16886 0.0216425 2.57548e-21)
(0.166948 0.0244025 -2.80648e-21)
(0.165248 0.0267102 2.06963e-22)
(0.163781 0.0286016 0)
(0.162971 0.0305317 -1.57115e-22)
(0.186399 -0.0580425 2.92212e-21)
(0.185901 -0.0600463 -2.49103e-20)
(0.185675 -0.0618138 2.38598e-20)
(0.185666 -0.0632191 1.43873e-21)
(0.185857 -0.0641726 1.41569e-21)
(0.186241 -0.0645943 0)
(0.186782 -0.064415 -1.35408e-21)
(0.187451 -0.0635567 -1.11455e-20)
(0.188188 -0.0619229 1.8614e-20)
(0.188916 -0.0594841 -9.84233e-21)
(0.189551 -0.0562294 -4.98635e-22)
(0.190002 -0.0521813 3.26417e-21)
(0.19018 -0.0474019 -3.28171e-21)
(0.190011 -0.0419925 -7.65267e-23)
(0.18944 -0.0360885 -6.47096e-20)
(0.188442 -0.0298486 6.46874e-20)
(0.187024 -0.0234427 2.83522e-23)
(0.18522 -0.0170378 -3.97705e-22)
(0.183091 -0.0107862 3.95694e-22)
(0.180714 -0.00481619 2.61271e-24)
(0.178175 0.000773015 9.41543e-22)
(0.175562 0.00591242 -2.35797e-21)
(0.172956 0.0105614 1.09927e-21)
(0.170426 0.0147036 -2.54934e-22)
(0.16803 0.0183426 0)
(0.165813 0.0214961 2.05575e-22)
(0.163802 0.0241884 2.11678e-22)
(0.162003 0.0264425 -3.77448e-21)
(0.16044 0.0282959 3.51132e-21)
(0.15954 0.0302078 1.6335e-22)
(0.18399 -0.0593117 0)
(0.183516 -0.0611125 -6.51055e-23)
(0.183349 -0.0627069 2.52444e-20)
(0.183399 -0.0639341 -2.57344e-20)
(0.183645 -0.0647039 -2.43073e-20)
(0.184077 -0.0649382 3.7659e-20)
(0.184655 -0.0645756 -1.03846e-20)
(0.185353 -0.0635212 -3.06304e-23)
(0.1861 -0.0617021 -1.29001e-21)
(0.186821 -0.0590931 0)
(0.187432 -0.0556878 -3.91151e-21)
(0.187841 -0.0515144 7.30645e-21)
(0.187962 -0.0466401 -3.38467e-21)
(0.187723 -0.0411697 8.00772e-23)
(0.187073 -0.0352394 -6.4531e-20)
(0.185991 -0.029007 6.45522e-20)
(0.184485 -0.022639 -2.96664e-23)
(0.182593 -0.0162978 -1.55201e-22)
(0.180377 -0.0101298 -8.01556e-23)
(0.177913 -0.00425742 2.32839e-22)
(0.175288 0.0012259 0)
(0.172589 0.0062563 -2.76121e-22)
(0.169895 0.0107975 -8.37317e-23)
(0.167276 0.0148367 2.81054e-21)
(0.164791 0.0183801 -7.4506e-21)
(0.162483 0.0214475 5.22527e-21)
(0.160379 0.0240643 5.45166e-21)
(0.158487 0.0262547 -5.64735e-21)
(0.156833 0.0280589 -7.56398e-23)
(0.155843 0.0299345 0)
(0.181221 -0.0604901 0)
(0.180773 -0.0620945 -2.5612e-20)
(0.180665 -0.0635186 2.78889e-20)
(0.180772 -0.0645686 2.50265e-20)
(0.181072 -0.0651539 -2.72659e-20)
(0.181548 -0.0652004 -1.40676e-20)
(0.182161 -0.0646469 8.21391e-22)
(0.18288 -0.0633918 1.35816e-20)
(0.18363 -0.0613857 2.71375e-21)
(0.184338 -0.058604 0)
(0.184917 -0.0550461 0)
(0.185278 -0.0507464 -2.98903e-21)
(0.185337 -0.045777 3.67484e-21)
(0.185025 -0.0402459 0)
(0.184296 -0.0342901 -6.29249e-20)
(0.183132 -0.0280657 6.29219e-20)
(0.181545 -0.021736 0)
(0.179572 -0.0154583 -1.17982e-22)
(0.177277 -0.00937334 1.82571e-22)
(0.174737 -0.00359766 0)
(0.172038 0.00178078 0)
(0.169265 0.00670294 6.65015e-22)
(0.166497 0.0111365 -2.83594e-21)
(0.163802 0.0150718 -2.53875e-22)
(0.161238 0.0185174 2.93792e-21)
(0.15885 0.0214949 7.06646e-21)
(0.156662 0.0240307 -7.41958e-21)
(0.154685 0.0261502 -6.76047e-21)
(0.152947 0.0278964 6.9793e-21)
(0.151867 0.0297215 0)
(0.178051 -0.0615738 0)
(0.177634 -0.0629823 0)
(0.177586 -0.0642373 0)
(0.177752 -0.0651091 -2.69222e-20)
(0.178105 -0.0655066 1.33896e-20)
(0.178618 -0.0653643 1.579e-20)
(0.179265 -0.0646087 1.66831e-21)
(0.179997 -0.0631514 1.18852e-20)
(0.180745 -0.0609555 -1.15202e-21)
(0.181433 -0.0579991 -1.10135e-20)
(0.181974 -0.054288 -5.72333e-22)
(0.182281 -0.0498628 -9.76785e-22)
(0.182274 -0.0448005 -1.81694e-21)
(0.181888 -0.0392117 1.34809e-21)
(0.181081 -0.0332337 -5.96886e-20)
(0.179838 -0.0270208 5.96952e-20)
(0.178174 -0.0207323 6.92974e-23)
(0.176128 -0.0145205 -8.28158e-23)
(0.173765 -0.00852014 -1.73838e-22)
(0.171162 -0.002842 -1.63678e-22)
(0.168401 0.0024313 3.25755e-21)
(0.165567 0.00724526 6.2285e-22)
(0.162737 0.0115712 -3.6911e-21)
(0.159979 0.0154022 5.77292e-22)
(0.157349 0.0187489 -3.82391e-21)
(0.154891 0.0216343 -5.17978e-21)
(0.15263 0.0240854 9.24186e-21)
(0.150577 0.0261289 0)
(0.148762 0.0278104 0)
(0.147597 0.0295743 0)
(0.174439 -0.0625515 -3.18149e-20)
(0.174059 -0.0637637 3.35427e-20)
(0.174073 -0.0648483 0)
(0.174298 -0.0655385 -1.53841e-20)
(0.174702 -0.0657441 1.74486e-20)
(0.175252 -0.0654068 1.42219e-20)
(0.175927 -0.0644404 -1.80812e-20)
(0.176668 -0.0627794 0)
(0.177407 -0.0603912 -1.50683e-21)
(0.178068 -0.057259 0)
(0.178565 -0.0533958 5.92823e-25)
(0.178814 -0.0488483 6.92344e-24)
(0.178738 -0.0436977 4.04324e-22)
(0.178277 -0.0380569 1.51863e-22)
(0.177393 -0.0320631 -5.47267e-20)
(0.176076 -0.0258681 5.47088e-20)
(0.174341 -0.0196268 -8.94443e-24)
(0.172233 -0.0134858 6.34263e-23)
(0.169812 -0.00757403 -4.52071e-23)
(0.167156 -0.00199622 -4.86597e-23)
(0.164347 0.00317019 0)
(0.161466 0.007875 -5.10041e-22)
(0.158588 0.0120928 0)
(0.15578 0.0158193 4.0406e-21)
(0.153097 0.0190666 -5.14253e-21)
(0.150581 0.0218586 -4.86663e-21)
(0.148257 0.024223 5.37891e-21)
(0.146137 0.0261873 0)
(0.144254 0.0277996 -8.03484e-21)
(0.143009 0.0294949 8.77e-21)
(0.170338 -0.0634075 0)
(0.170002 -0.0644217 8.18305e-23)
(0.17008 -0.0653319 3.57725e-20)
(0.170368 -0.0658349 -3.41417e-20)
(0.170818 -0.065844 2.05781e-21)
(0.171408 -0.0653006 -3.9247e-21)
(0.172106 -0.0641178 1.85041e-21)
(0.17285 -0.062251 0)
(0.173576 -0.059669 0)
(0.174204 -0.0563621 0)
(0.174651 -0.0523502 6.2003e-22)
(0.174837 -0.047686 -3.16139e-21)
(0.17469 -0.0424548 4.90435e-21)
(0.174154 -0.036771 -1.96824e-21)
(0.173196 -0.0307711 -4.71922e-20)
(0.171809 -0.0246036 4.77136e-20)
(0.170012 -0.0184184 1.97614e-22)
(0.16785 -0.0123562 -1.49091e-21)
(0.165383 -0.00653945 1.34584e-21)
(0.162688 -0.00106695 2.28128e-22)
(0.159844 0.00398906 3.37361e-22)
(0.15693 0.00858251 0)
(0.154019 0.0126911 0)
(0.151175 0.0163124 7.38169e-22)
(0.148451 0.0194599 -1.64342e-21)
(0.145889 0.0221582 8.90878e-22)
(0.143514 0.024435 1.32035e-20)
(0.141337 0.0263184 -1.2022e-20)
(0.139393 0.0278588 1.1734e-22)
(0.138075 0.0294806 0)
(0.165697 -0.0641187 -3.61934e-20)
(0.165408 -0.0649347 3.35695e-20)
(0.165557 -0.0656626 1.57044e-20)
(0.165908 -0.0659699 -1.82534e-20)
(0.166408 -0.0657771 -1.89073e-20)
(0.167036 -0.0650143 1.93629e-20)
(0.167751 -0.0636136 1.52212e-20)
(0.168496 -0.0615384 -1.36362e-20)
(0.169202 -0.0587625 7.16947e-21)
(0.169791 -0.0552838 -6.41323e-21)
(0.170185 -0.0511294 5.29854e-21)
(0.170305 -0.0463574 -2.84157e-21)
(0.170085 -0.0410567 -1.67859e-21)
(0.169475 -0.0353426 6.78629e-23)
(0.168446 -0.0293499 -3.83345e-20)
(0.166995 -0.0232231 3.83094e-20)
(0.165145 -0.0171065 2.18243e-23)
(0.162939 -0.0111342 9.193e-22)
(0.16044 -0.00542182 1.47251e-21)
(0.157719 -6.20666e-05 -2.26787e-21)
(0.154855 0.00487802 2.89608e-21)
(0.151922 0.00935635 -2.73833e-21)
(0.148993 0.0133534 8.55685e-21)
(0.146127 0.0168684 -7.42837e-21)
(0.143376 0.0199158 -7.0367e-21)
(0.140781 0.0225203 6.85828e-21)
(0.138365 0.0247094 7.88432e-21)
(0.136141 0.0265115 -8.59356e-21)
(0.134147 0.0279788 -1.38822e-20)
(0.132763 0.0295245 1.31599e-20)
(0.160454 -0.0646565 -2.43195e-21)
(0.160219 -0.0652725 -3.82344e-20)
(0.160444 -0.0658072 4.20784e-20)
(0.160861 -0.0659102 0)
(0.161413 -0.0655043 -2.353e-21)
(0.162078 -0.0645135 0)
(0.162809 -0.0628927 -2.13859e-21)
(0.163549 -0.060608 1.48222e-20)
(0.16423 -0.0576406 -1.59229e-20)
(0.164776 -0.0539963 7.83973e-22)
(0.165111 -0.0497089 -1.32708e-21)
(0.165162 -0.0448419 -5.31488e-22)
(0.164869 -0.0394869 -2.06616e-22)
(0.164186 -0.0337594 -7.04401e-23)
(0.163091 -0.0277914 -2.64032e-20)
(0.161584 -0.0217228 2.63907e-20)
(0.15969 -0.0156911 -2.26527e-23)
(0.157453 -0.0098233 -9.80593e-23)
(0.154934 -0.00422794 3.50801e-22)
(0.152203 0.0010088 0)
(0.149334 0.00582506 4.99893e-22)
(0.146399 0.0101826 8.06593e-21)
(0.143466 0.0140644 -8.23816e-21)
(0.140593 0.0174712 -1.22282e-21)
(0.13783 0.0204177 0)
(0.135214 0.0229284 -1.25177e-21)
(0.13277 0.0250303 0)
(0.13051 0.0267514 -1.66664e-20)
(0.128474 0.0281456 1.7413e-20)
(0.127032 0.0296144 -9.75885e-22)
(0.154536 -0.0649841 -3.86947e-20)
(0.154367 -0.0653919 4.06272e-20)
(0.154673 -0.0657214 1.10969e-22)
(0.155159 -0.0656128 2.22726e-20)
(0.155767 -0.0649783 -3.70252e-20)
(0.156466 -0.0637565 2.20411e-20)
(0.15721 -0.0619137 2.20141e-21)
(0.157941 -0.0594208 4.8453e-23)
(0.158592 -0.0562674 0)
(0.15909 -0.0524672 -8.09612e-22)
(0.159362 -0.0480608 -3.5186e-21)
(0.159343 -0.0431162 5.49207e-21)
(0.158976 -0.0377271 1.93146e-22)
(0.158224 -0.032008 -2.91702e-22)
(0.157068 -0.0260874 -1.12345e-20)
(0.155514 -0.020099 1.13761e-20)
(0.153588 -0.0141731 2.63447e-22)
(0.151333 -0.0084287 1.62984e-22)
(0.14881 -0.00296667 -3.90002e-21)
(0.146085 0.00213348 3.49666e-21)
(0.143228 0.00681519 -5.16237e-22)
(0.140308 0.011044 0)
(0.137389 0.0148051 -1.21163e-21)
(0.134525 0.0181002 1.25873e-21)
(0.131763 0.0209442 -9.60849e-21)
(0.129141 0.0233609 2.31453e-20)
(0.12668 0.0253761 -9.31705e-21)
(0.124394 0.0270174 1.78189e-22)
(0.122326 0.0283393 -1.85415e-20)
(0.120834 0.0297317 1.97569e-20)
(0.147859 -0.0650489 0)
(0.147767 -0.0652378 0)
(0.148161 -0.0653508 -2.41479e-20)
(0.148722 -0.0650185 1.95628e-20)
(0.149389 -0.0641454 0)
(0.150121 -0.0626907 -2.46978e-21)
(0.150875 -0.0606256 -2.39639e-21)
(0.151593 -0.057929 -2.14275e-21)
(0.152208 -0.0545993 0)
(0.152652 -0.050658 0)
(0.152859 -0.0461521 -7.02885e-22)
(0.152766 -0.0411534 2.13311e-21)
(0.152327 -0.0357565 -2.2665e-21)
(0.15151 -0.0300739 -5.98977e-23)
(0.150301 -0.024229 6.46897e-21)
(0.14871 -0.0183488 -6.49952e-21)
(0.146764 -0.012555 -5.23444e-23)
(0.144508 -0.00695781 1.34384e-21)
(0.141997 -0.00164995 -1.70056e-21)
(0.139296 0.00329606 0)
(0.136471 0.00782904 0)
(0.133584 0.0119182 0)
(0.130696 0.0155507 0)
(0.127859 0.0187291 -1.67624e-21)
(0.125116 0.0214678 -1.49732e-21)
(0.122502 0.0237896 0)
(0.120037 0.0257184 -1.42222e-20)
(0.117738 0.0272812 1.09131e-20)
(0.115646 0.0285322 0)
(0.114111 0.0298497 0)
(0.140318 -0.0647804 -2.94861e-21)
(0.140319 -0.0647381 0)
(0.140809 -0.064625 0)
(0.141454 -0.0640522 0)
(0.142178 -0.0629369 0)
(0.142942 -0.0612484 0)
(0.143702 -0.0589646 2.44747e-21)
(0.144401 -0.0560739 1.15542e-21)
(0.144976 -0.0525834 -7.48575e-21)
(0.145361 -0.0485226 2.19186e-21)
(0.145498 -0.0439438 1.21591e-20)
(0.145332 -0.0389219 -7.20311e-21)
(0.144822 -0.0335512 7.40704e-22)
(0.143944 -0.0279407 1.12982e-21)
(0.142692 -0.0222077 2.82095e-20)
(0.141076 -0.0164705 -2.82568e-20)
(0.139127 -0.0108417 -1.55465e-21)
(0.136886 -0.00542163 -5.93055e-22)
(0.134408 -0.000294334 7.19527e-21)
(0.131752 0.00447505 -1.02011e-20)
(0.128979 0.00884081 1.30015e-22)
(0.126147 0.0127757 6.3738e-21)
(0.123312 0.0162688 9.42799e-22)
(0.12052 0.0193229 1.71195e-21)
(0.117813 0.0219518 0)
(0.115224 0.0241762 0)
(0.112771 0.0260185 0)
(0.110469 0.0275038 0)
(0.108364 0.0286859 0)
(0.106795 0.0299304 -1.63924e-21)
(0.131788 -0.0640828 6.13197e-21)
(0.131897 -0.0637979 -2.44911e-20)
(0.132496 -0.0634427 2.54553e-20)
(0.133228 -0.0626202 0)
(0.13401 -0.0612617 -2.27299e-20)
(0.134804 -0.0593421 2.62576e-20)
(0.135564 -0.0568491 -2.10988e-20)
(0.136238 -0.0537809 1.78706e-20)
(0.136764 -0.0501535 0)
(0.137086 -0.0460036 5.56639e-21)
(0.137149 -0.0413883 -2.25112e-21)
(0.136908 -0.0363841 -6.89738e-21)
(0.136332 -0.0310835 1.97613e-21)
(0.135401 -0.0255906 1.09242e-22)
(0.134116 -0.0200148 5.39847e-20)
(0.132491 -0.0144647 -5.34943e-20)
(0.130556 -0.00904209 -6.31114e-22)
(0.128353 -0.00383678 -2.265e-21)
(0.12593 0.00107659 8.55652e-21)
(0.123343 0.00564057 1.03646e-21)
(0.120647 0.00981507 -7.62776e-21)
(0.117895 0.0135763 -1.03926e-21)
(0.115135 0.016915 -1.87977e-20)
(0.112412 0.0198339 1.52174e-20)
(0.109762 0.0223455 -1.49723e-20)
(0.107216 0.0244686 1.6762e-20)
(0.104791 0.0262227 0)
(0.102502 0.027631 -1.63549e-20)
(0.100396 0.0287457 1.58345e-20)
(0.0988002 0.0299192 3.58119e-21)
(0.122108 -0.0628206 1.99785e-20)
(0.122345 -0.0622808 -2.59941e-20)
(0.123063 -0.061669 -2.258e-20)
(0.123882 -0.0605954 2.69116e-20)
(0.124722 -0.0589962 2.72085e-20)
(0.125539 -0.0568557 -5.31536e-20)
(0.126293 -0.0541719 3.62422e-20)
(0.126932 -0.0509535 -9.38869e-21)
(0.127402 -0.0472249 0)
(0.127653 -0.043029 -6.57404e-21)
(0.127639 -0.0384267 5.96252e-21)
(0.127325 -0.0334944 -2.59316e-22)
(0.126687 -0.0283213 -4.212e-22)
(0.125714 -0.0230044 4.21745e-22)
(0.124411 -0.0176435 8.4595e-20)
(0.122795 -0.012336 -8.41986e-20)
(0.120897 -0.00717162 -1.58546e-21)
(0.118756 -0.0022287 1.16985e-21)
(0.116417 0.00242823 -4.44072e-22)
(0.113928 0.00674977 -9.92407e-21)
(0.111338 0.0107016 9.00051e-21)
(0.108694 0.0142633 2.25155e-21)
(0.106039 0.0174269 1.0725e-20)
(0.103411 0.0201948 -2.65952e-20)
(0.100844 0.0225778 3.39708e-20)
(0.0983633 0.0245921 -1.65825e-20)
(0.0959865 0.0262542 -1.94698e-20)
(0.0937279 0.0275844 1.88467e-20)
(0.0916353 0.0286326 1.71237e-20)
(0.0900234 0.0297363 -2.16237e-20)
(0.111073 -0.0607955 3.18201e-20)
(0.111458 -0.0599874 3.75781e-21)
(0.112296 -0.0591181 -4.7329e-21)
(0.113203 -0.0577966 -2.8581e-20)
(0.114093 -0.0559689 -3.21665e-21)
(0.114925 -0.0536297 4.64017e-21)
(0.11566 -0.0507882 6.82292e-23)
(0.116252 -0.0474629 0)
(0.116656 -0.043686 0)
(0.116829 -0.0395057 -6.63577e-21)
(0.116735 -0.0349844 7.49887e-21)
(0.11635 -0.0301969 2.61164e-22)
(0.115658 -0.0252265 0)
(0.114657 -0.0201614 -7.29462e-23)
(0.113355 -0.0150899 1.20429e-19)
(0.111774 -0.0100962 -1.1989e-19)
(0.109941 -0.00525673 -6.80594e-22)
(0.107894 -0.000637271 0)
(0.105672 0.00370838 4.47236e-22)
(0.103317 0.00773923 -8.2441e-21)
(0.100869 0.0114267 7.96625e-21)
(0.0983693 0.0147538 -1.2047e-21)
(0.0958533 0.0177136 0)
(0.093354 0.0203077 1.84003e-22)
(0.0909 0.0225448 4.10391e-21)
(0.0885148 0.0244379 -2.6099e-21)
(0.0862124 0.0260001 2.22246e-20)
(0.0840072 0.0272481 -2.04288e-23)
(0.0819472 0.0282285 1.75753e-21)
(0.0803332 0.0292616 -1.78851e-20)
(0.0984041 -0.0577026 -3.04554e-20)
(0.0989477 -0.0566312 2.60906e-20)
(0.0999046 -0.0555106 0)
(0.100889 -0.0539585 -2.62208e-20)
(0.101814 -0.0519322 3.08979e-20)
(0.102643 -0.0494377 -1.39365e-20)
(0.103342 -0.0464951 2.24744e-20)
(0.103872 -0.0431315 -1.01572e-20)
(0.104197 -0.039386 0)
(0.104285 -0.0353097 0)
(0.104111 -0.0309647 2.74449e-21)
(0.10366 -0.0264214 -2.65586e-21)
(0.102928 -0.021755 0)
(0.101918 -0.0170423 1.70665e-24)
(0.100645 -0.0123578 1.6204e-19)
(0.0991298 -0.00777078 -1.62078e-19)
(0.0974004 -0.00334296 1.69765e-22)
(0.0954882 0.000873297 0)
(0.0934267 0.00483561 4.17931e-21)
(0.0912496 0.00851169 -4.02525e-21)
(0.0889902 0.0118788 0)
(0.0866799 0.0149232 0)
(0.0843476 0.0176385 1.41512e-20)
(0.08202 0.0200253 -2.63618e-20)
(0.0797207 0.0220896 1.08786e-20)
(0.0774692 0.023841 -2.38569e-20)
(0.0752772 0.0252883 2.64105e-20)
(0.0731579 0.0264445 0)
(0.0711585 0.0273516 -2.53774e-20)
(0.0695633 0.028309 2.01125e-20)
(0.0837053 -0.0530595 -3.06e-20)
(0.084405 -0.0517506 2.97583e-20)
(0.0854605 -0.0504089 -3.11199e-20)
(0.0864958 -0.0486731 6.59038e-22)
(0.0874283 -0.0465127 1.06117e-21)
(0.0882257 -0.0439443 4.34968e-20)
(0.0888628 -0.0409972 -1.32834e-20)
(0.0893106 -0.037706 -1.34913e-21)
(0.089543 -0.0341136 8.39976e-21)
(0.08954 -0.030272 -1.51251e-20)
(0.0892893 -0.02624 6.6502e-21)
(0.0887868 -0.0220804 1.4071e-21)
(0.0880364 -0.0178572 -1.24031e-21)
(0.0870496 -0.0136332 -2.07314e-22)
(0.0858437 -0.00946686 2.10876e-19)
(0.0844407 -0.00541078 -2.0989e-19)
(0.082865 -0.00151061 -2.75655e-21)
(0.0811426 0.00219561 6.77512e-21)
(0.0792992 0.00567733 -4.14022e-21)
(0.07736 0.00891116 -1.20299e-20)
(0.0753491 0.0118802 2.49396e-20)
(0.0732888 0.0145735 -1.27368e-20)
(0.0712003 0.0169853 -1.61259e-21)