/*--------------------------------*- C++ -*----------------------------------*\
  =========                 |
  \\      /  F ield         | OpenFOAM: The Open Source CFD Toolbox
   \\    /   O peration     | Website:  https://openfoam.org
    \\  /    A nd           | Version:  12
     \\/     M anipulation  |
\*---------------------------------------------------------------------------*/
FoamFile
{
    format      ascii;
    class       volSymmTensorField;
    location    "300";
    object      UPrime2Mean;
}
// * * * * * * * * * * * * * * * * * * * * * * * * * * * * * * * * * * * * * //

dimensions      [0 2 -2 0 0 0 0];

internalField   nonuniform List<symmTensor> 
6750
(
(2.29172e-10 3.26302e-09 0 9.03123e-08 0 0)
(5.40928e-09 6.31942e-08 0 1.26735e-06 0 0)
(1.75505e-08 2.13258e-07 0 4.05611e-06 0 0)
(3.25925e-08 4.33499e-07 0 8.48587e-06 0 0)
(7.73631e-08 9.27786e-07 0 1.44077e-05 0 0)
(2.09003e-11 3.37315e-10 0 6.83185e-08 0 0)
(9.6953e-10 2.57591e-08 0 1.06162e-06 0 0)
(6.71049e-09 1.28303e-07 0 3.47007e-06 0 0)
(2.31581e-08 3.58612e-07 0 7.249e-06 0 0)
(6.17637e-08 7.81605e-07 0 1.21537e-05 0 0)
(1.72507e-11 3.69063e-10 0 6.21325e-08 0 0)
(7.65165e-10 2.52767e-08 0 9.67268e-07 0 0)
(6.85561e-09 1.369e-07 0 3.12101e-06 0 0)
(2.67778e-08 3.8961e-07 0 6.37857e-06 0 0)
(6.97342e-08 8.05766e-07 0 1.03869e-05 0 0)
(1.47051e-11 3.38954e-10 0 5.43607e-08 0 0)
(1.10173e-09 2.98093e-08 0 8.54034e-07 0 0)
(9.35996e-09 1.55753e-07 0 2.72721e-06 0 0)
(3.4295e-08 4.23196e-07 0 5.49594e-06 0 0)
(8.26861e-08 8.31865e-07 0 8.82526e-06 0 0)
(1.12273e-11 2.6209e-10 0 4.56721e-08 0 0)
(1.47772e-09 3.24245e-08 0 7.30575e-07 0 0)
(1.21748e-08 1.66507e-07 0 2.32541e-06 0 0)
(4.25069e-08 4.40079e-07 0 4.65478e-06 0 0)
(9.76917e-08 8.4207e-07 0 7.42814e-06 0 0)
(7.62365e-12 1.49295e-10 0 3.71401e-08 0 0)
(1.76855e-09 3.25747e-08 0 6.0705e-07 0 0)
(1.47604e-08 1.68349e-07 0 1.93468e-06 0 0)
(5.07378e-08 4.41065e-07 0 3.86298e-06 0 0)
(1.14555e-07 8.35845e-07 0 6.14815e-06 0 0)
(5.92539e-12 3.57771e-11 0 2.9316e-08 0 0)
(1.98728e-09 3.11041e-08 0 4.89396e-07 0 0)
(1.71846e-08 1.63836e-07 0 1.56499e-06 0 0)
(5.92718e-08 4.29927e-07 0 3.12369e-06 0 0)
(1.33678e-07 8.14111e-07 0 4.96655e-06 0 0)
(7.23604e-12 -5.42247e-11 0 2.24081e-08 0 0)
(2.17449e-09 2.8706e-08 0 3.81066e-07 0 0)
(1.95872e-08 1.5473e-07 0 1.22344e-06 0 0)
(6.82944e-08 4.08385e-07 0 2.44336e-06 0 0)
(1.54955e-07 7.75627e-07 0 3.88383e-06 0 0)
(1.15856e-11 -1.12768e-10 0 1.64669e-08 0 0)
(2.35429e-09 2.57305e-08 0 2.84328e-07 0 0)
(2.19991e-08 1.41789e-07 0 9.16379e-07 0 0)
(7.76289e-08 3.76726e-07 0 1.83177e-06 0 0)
(1.77545e-07 7.18413e-07 0 2.9118e-06 0 0)
(1.82397e-11 -1.41098e-10 0 1.14889e-08 0 0)
(2.53154e-09 2.23279e-08 0 2.00815e-07 0 0)
(2.43496e-08 1.2538e-07 0 6.49445e-07 0 0)
(8.68217e-08 3.35124e-07 0 1.29939e-06 0 0)
(2.00086e-07 6.41603e-07 0 2.06584e-06 0 0)
(2.60243e-11 -1.44308e-10 0 7.45688e-09 0 0)
(2.69901e-09 1.85793e-08 0 1.31655e-07 0 0)
(2.65151e-08 1.05913e-07 0 4.27087e-07 0 0)
(9.52916e-08 2.84434e-07 0 8.55251e-07 0 0)
(2.20999e-07 5.46365e-07 0 1.35996e-06 0 0)
(3.36708e-11 -1.28405e-10 0 4.3461e-09 0 0)
(2.84311e-09 1.45601e-08 0 7.74276e-08 0 0)
(2.83579e-08 8.39904e-08 0 2.51934e-07 0 0)
(1.02484e-07 2.2636e-07 0 5.04927e-07 0 0)
(2.38831e-07 4.35926e-07 0 8.03032e-07 0 0)
(3.98726e-11 -9.82593e-11 0 2.11838e-09 0 0)
(2.94662e-09 1.0364e-08 0 3.81191e-08 0 0)
(2.97578e-08 6.04067e-08 0 1.24493e-07 0 0)
(1.07968e-07 1.63232e-07 0 2.49716e-07 0 0)
(2.52509e-07 3.14952e-07 0 3.97203e-07 0 0)
(4.24452e-11 -5.64154e-11 0 7.17452e-10 0 0)
(2.9849e-09 6.10763e-09 0 1.31386e-08 0 0)
(3.0631e-08 3.60624e-08 0 4.31696e-08 0 0)
(1.11497e-07 9.76645e-08 0 8.66623e-08 0 0)
(2.61452e-07 1.88712e-07 0 1.37868e-07 0 0)
(3.71752e-11 -1.38275e-11 0 7.74974e-11 0 0)
(2.9028e-09 1.93673e-09 0 1.36617e-09 0 0)
(3.09539e-08 1.18351e-08 0 4.60176e-09 0 0)
(1.13071e-07 3.21879e-08 0 9.27897e-09 0 0)
(2.65643e-07 6.23123e-08 0 1.47882e-08 0 0)
(3.72314e-11 1.07649e-11 0 9.66234e-11 0 0)
(2.90332e-09 -1.99749e-09 0 1.459e-09 0 0)
(3.09529e-08 -1.20509e-08 0 4.79155e-09 0 0)
(1.13068e-07 -3.25865e-08 0 9.54932e-09 0 0)
(2.65633e-07 -6.28937e-08 0 1.51243e-08 0 0)
(4.23721e-11 5.44264e-11 0 7.75023e-10 0 0)
(2.98361e-09 -6.16878e-09 0 1.34255e-08 0 0)
(3.06264e-08 -3.62759e-08 0 4.37477e-08 0 0)
(1.11484e-07 -9.80566e-08 0 8.74832e-08 0 0)
(2.61419e-07 -1.89279e-07 0 1.38887e-07 0 0)
(3.97139e-11 9.7188e-11 0 2.21499e-09 0 0)
(2.94404e-09 -1.04218e-08 0 3.86059e-08 0 0)
(2.97495e-08 -6.06122e-08 0 1.2547e-07 0 0)
(1.07946e-07 -1.63607e-07 0 2.511e-07 0 0)
(2.52454e-07 -3.15489e-07 0 3.9892e-07 0 0)
(3.34794e-11 1.28511e-10 0 4.47968e-09 0 0)
(2.83961e-09 -1.46121e-08 0 7.81163e-08 0 0)
(2.83467e-08 -8.41828e-08 0 2.53315e-07 0 0)
(1.02455e-07 -2.2671e-07 0 5.06878e-07 0 0)
(2.38757e-07 -4.36416e-07 0 8.05445e-07 0 0)
(2.58497e-11 1.45848e-10 0 7.62372e-09 0 0)
(2.69511e-09 -1.86238e-08 0 1.32544e-07 0 0)
(2.65026e-08 -1.06089e-07 0 4.2887e-07 0 0)
(9.52581e-08 -2.84754e-07 0 8.57761e-07 0 0)
(2.20908e-07 -5.46793e-07 0 1.36305e-06 0 0)
(1.81343e-11 1.44136e-10 0 1.16838e-08 0 0)
(2.5277e-09 -2.23639e-08 0 2.01901e-07 0 0)
(2.43372e-08 -1.25538e-07 0 6.51626e-07 0 0)
(8.67866e-08 -3.35409e-07 0 1.30245e-06 0 0)
(1.9998e-07 -6.41953e-07 0 2.06958e-06 0 0)
(1.16018e-11 1.17246e-10 0 1.66836e-08 0 0)
(2.35048e-09 -2.5755e-08 0 2.85604e-07 0 0)
(2.19853e-08 -1.41921e-07 0 9.18947e-07 0 0)
(7.75919e-08 -3.76965e-07 0 1.83531e-06 0 0)
(1.77431e-07 -7.18673e-07 0 2.91607e-06 0 0)
(7.40445e-12 6.00729e-11 0 2.26387e-08 0 0)
(2.16994e-09 -2.87108e-08 0 3.82511e-07 0 0)
(1.95671e-08 -1.54811e-07 0 1.22637e-06 0 0)
(6.82449e-08 -4.0854e-07 0 2.44737e-06 0 0)
(1.54837e-07 -7.75793e-07 0 3.88855e-06 0 0)
(6.23518e-12 -2.90038e-11 0 2.95515e-08 0 0)
(1.98239e-09 -3.10883e-08 0 4.90976e-07 0 0)
(1.71609e-08 -1.63863e-07 0 1.56826e-06 0 0)
(5.92215e-08 -4.30031e-07 0 3.12829e-06 0 0)
(1.33563e-07 -8.1425e-07 0 4.97227e-06 0 0)
(8.04127e-12 -1.42552e-10 0 3.73733e-08 0 0)
(1.76452e-09 -3.25476e-08 0 6.08737e-07 0 0)
(1.4741e-08 -1.68359e-07 0 1.93827e-06 0 0)
(5.07043e-08 -4.41196e-07 0 3.86819e-06 0 0)
(1.14463e-07 -8.36023e-07 0 6.15485e-06 0 0)
(1.16963e-11 -2.55853e-10 0 4.58987e-08 0 0)
(1.47448e-09 -3.23878e-08 0 7.32354e-07 0 0)
(1.21588e-08 -1.66502e-07 0 2.32936e-06 0 0)
(4.24803e-08 -4.40214e-07 0 4.66077e-06 0 0)
(9.76072e-08 -8.42249e-07 0 7.43613e-06 0 0)
(1.51453e-11 -3.33792e-10 0 5.4578e-08 0 0)
(1.0992e-09 -2.97676e-08 0 8.55879e-07 0 0)
(9.34717e-09 -1.55741e-07 0 2.7315e-06 0 0)
(3.42751e-08 -4.2336e-07 0 5.50287e-06 0 0)
(8.26071e-08 -8.32025e-07 0 8.83479e-06 0 0)
(1.75576e-11 -3.65066e-10 0 6.2339e-08 0 0)
(7.62619e-10 -2.52313e-08 0 9.69152e-07 0 0)
(6.84387e-09 -1.36878e-07 0 3.12564e-06 0 0)
(2.67546e-08 -3.89737e-07 0 6.38644e-06 0 0)
(6.96506e-08 -8.0577e-07 0 1.03983e-05 0 0)
(2.1015e-11 -3.351e-10 0 6.85123e-08 0 0)
(9.6588e-10 -2.57196e-08 0 1.0635e-06 0 0)
(6.69701e-09 -1.28277e-07 0 3.47494e-06 0 0)
(2.31292e-08 -3.58683e-07 0 7.25778e-06 0 0)
(6.16803e-08 -7.81332e-07 0 1.21672e-05 0 0)
(2.28693e-10 -3.26106e-09 0 9.04929e-08 0 0)
(5.40039e-09 -6.31491e-08 0 1.26916e-06 0 0)
(1.75275e-08 -2.13171e-07 0 4.061e-06 0 0)
(3.2552e-08 -4.3328e-07 0 8.49513e-06 0 0)
(7.72675e-08 -9.26962e-07 0 1.44225e-05 0 0)
(8.251e-07 5.13963e-06 0 3.49316e-05 0 0)
(1.9229e-06 9.43312e-06 0 4.92672e-05 0 0)
(3.37858e-06 1.44429e-05 0 6.49765e-05 0 0)
(4.9485e-06 1.96073e-05 -4.44699e-25 8.13076e-05 -1.15337e-24 9.30202e-43)
(6.58587e-06 2.47909e-05 0 9.73206e-05 0 0)
(8.24618e-06 2.98281e-05 0 0.000112225 0 0)
(9.87072e-06 3.45175e-05 4.55558e-23 0.000125297 1.1964e-22 3.59145e-39)
(1.14176e-05 3.868e-05 -5.0281e-23 0.000135823 -1.30851e-22 3.65473e-39)
(1.28291e-05 4.21185e-05 -4.26683e-25 0.000143096 -1.10489e-24 2.05383e-43)
(1.41745e-05 4.49163e-05 -2.96648e-23 0.000147036 -7.62128e-23 7.75416e-40)
(1.53839e-05 4.68602e-05 5.48807e-26 0.000147059 -8.21114e-26 1.57659e-42)
(1.64856e-05 4.78268e-05 1.54899e-25 0.000142458 2.16959e-25 1.8597e-42)
(1.74953e-05 4.79025e-05 1.75733e-23 0.000134003 4.23149e-23 1.84566e-40)
(1.84365e-05 4.71233e-05 1.80077e-23 0.000122295 4.20902e-23 1.50823e-40)
(1.93356e-05 4.55414e-05 4.33029e-23 0.000108207 9.75974e-23 6.76654e-40)
(2.02177e-05 4.32087e-05 -4.45489e-23 9.27808e-05 -9.62725e-23 6.76776e-40)
(2.11128e-05 4.01778e-05 1.83777e-23 7.71058e-05 3.77681e-23 9.05906e-41)
(2.20516e-05 3.64914e-05 1.75685e-23 6.21797e-05 3.40272e-23 6.52007e-41)
(2.30674e-05 3.22005e-05 -9.5506e-25 4.88473e-05 -1.76468e-24 1.9779e-42)
(2.4203e-05 2.73748e-05 -1.03137e-24 3.77227e-05 -1.71182e-24 1.71409e-42)
(2.55417e-05 2.2124e-05 -3.60675e-23 2.91456e-05 -5.42716e-23 2.29454e-40)
(2.70916e-05 1.64421e-05 5.54962e-25 2.30017e-05 7.29087e-25 4.61626e-44)
(2.88056e-05 1.04502e-05 -6.78634e-23 1.93126e-05 -7.71366e-23 6.00375e-40)
(3.06847e-05 4.29429e-06 6.90205e-23 1.78227e-05 6.46282e-23 5.89794e-40)
(3.2708e-05 -1.88615e-06 0 1.81452e-05 0 0)
(3.48298e-05 -7.9596e-06 0 1.98384e-05 0 0)
(3.69928e-05 -1.38047e-05 1.06149e-24 2.24618e-05 3.60465e-25 9.6679e-44)
(3.91653e-05 -1.93005e-05 0 2.56128e-05 0 0)
(4.13999e-05 -2.43006e-05 0 2.89178e-05 0 0)
(4.34408e-05 -2.86488e-05 0 3.19724e-05 0 0)
(1.29043e-06 7.08049e-06 0 4.18997e-05 0 0)
(2.53015e-06 1.16927e-05 0 5.7276e-05 0 0)
(3.96563e-06 1.65611e-05 0 7.26945e-05 0 0)
(5.49547e-06 2.14971e-05 4.44044e-25 8.79864e-05 1.14518e-24 8.27395e-43)
(7.10331e-06 2.6432e-05 0 0.000102584 0 0)
(8.739e-06 3.11976e-05 0 0.000115889 0 0)
(1.03524e-05 3.56165e-05 -4.36812e-23 0.000127285 -1.1227e-22 3.10414e-39)
(1.19118e-05 3.95381e-05 4.88126e-23 0.000136167 1.23597e-22 3.25082e-39)
(1.33717e-05 4.28035e-05 4.10403e-25 0.000141972 1.03013e-24 1.81035e-43)
(1.48029e-05 4.5521e-05 0 0.000144816 0 0)
(1.6125e-05 4.74127e-05 0 0.00014386 0 0)
(1.73914e-05 4.8461e-05 3.1616e-23 0.000138881 7.46426e-23 5.69678e-40)
(1.85837e-05 4.8686e-05 -3.3248e-23 0.000130541 -7.60993e-23 5.73267e-40)
(1.97176e-05 4.81087e-05 0 0.000119384 0 0)
(2.08031e-05 4.67549e-05 1.21464e-22 0.000106174 2.60026e-22 4.99389e-39)
(2.18484e-05 4.46533e-05 -1.25223e-22 9.1797e-05 -2.57438e-22 4.99069e-39)
(2.28682e-05 4.18384e-05 0 7.71706e-05 0 0)
(2.38848e-05 3.83526e-05 -3.57042e-23 6.31541e-05 -6.63206e-23 2.76684e-40)
(2.49285e-05 3.42473e-05 3.65332e-23 5.0468e-05 6.37675e-23 2.79418e-40)
(2.60434e-05 2.95974e-05 0 3.96609e-05 0 0)
(2.7265e-05 2.44765e-05 0 3.10537e-05 0 0)
(2.8642e-05 1.89398e-05 -5.39641e-25 2.46517e-05 -7.12546e-25 4.06214e-44)
(3.01853e-05 1.31087e-05 6.72079e-23 2.04793e-05 7.64667e-23 5.42933e-40)
(3.18671e-05 7.09293e-06 -6.92035e-23 1.83624e-05 -6.62851e-23 5.51998e-40)
(3.36787e-05 1.02475e-06 0 1.80094e-05 0 0)
(3.55906e-05 -4.97167e-06 0 1.90591e-05 0 0)
(3.75535e-05 -1.07865e-05 -1.01102e-24 2.11291e-05 -4.37025e-25 8.57662e-44)
(3.95177e-05 -1.63235e-05 0 2.38552e-05 0 0)
(4.15233e-05 -2.14948e-05 0 2.69168e-05 0 0)
(4.35005e-05 -2.63611e-05 0 3.01164e-05 0 0)
(1.79435e-06 8.91464e-06 0 4.73647e-05 0 0)
(3.01201e-06 1.33051e-05 0 6.2111e-05 0 0)
(4.43227e-06 1.7989e-05 0 7.6645e-05 0 0)
(5.98221e-06 2.28136e-05 -3.0096e-23 9.09679e-05 -7.66792e-23 3.35764e-39)
(7.62196e-06 2.76438e-05 3.49956e-23 0.000104542 8.79619e-23 3.43688e-39)
(9.30358e-06 3.23091e-05 -4.14758e-23 0.000116777 -1.03793e-22 3.44576e-39)
(1.09942e-05 3.66604e-05 4.6415e-23 0.000127088 1.14046e-22 3.51087e-39)
(1.26704e-05 4.05635e-05 -8.11885e-25 0.000134931 -1.96956e-24 8.15148e-43)
(1.43059e-05 4.38986e-05 0 0.000139861 0 0)
(1.59613e-05 4.67551e-05 0 0.000142041 0 0)
(1.75595e-05 4.88249e-05 1.01139e-24 0.000140517 2.27197e-24 6.74379e-43)
(1.91542e-05 5.01363e-05 0 0.000135418 0 0)
(2.07017e-05 5.06521e-05 0 0.000127278 0 0)
(2.22024e-05 5.03687e-05 2.96549e-25 0.000116611 6.01982e-25 3.26228e-44)
(2.36425e-05 4.92808e-05 2.19187e-22 0.000104105 4.29007e-22 1.42081e-38)
(2.50068e-05 4.73922e-05 -2.26874e-22 9.05492e-05 -4.25873e-22 1.42078e-38)
(2.62876e-05 4.47208e-05 -3.19754e-25 7.67495e-05 -5.74101e-25 2.33483e-44)
(2.7491e-05 4.13024e-05 0 6.34591e-05 0 0)
(2.86398e-05 3.7194e-05 0 5.13173e-05 0 0)
(2.97751e-05 3.2476e-05 -1.28241e-24 4.08107e-05 -1.91917e-24 2.53562e-43)
(3.09455e-05 2.7243e-05 0 3.22447e-05 0 0)
(3.21973e-05 2.16049e-05 0 2.57623e-05 0 0)
(3.35552e-05 1.56588e-05 1.22226e-24 2.13216e-05 1.33747e-24 1.63318e-43)
(3.5023e-05 9.53088e-06 7.68185e-23 1.88062e-05 7.1542e-23 5.68565e-40)
(3.65999e-05 3.35346e-06 -7.74501e-23 1.79893e-05 -5.95946e-23 5.58021e-40)
(3.82715e-05 -2.74942e-06 7.70324e-23 1.85699e-05 4.66722e-23 4.77973e-40)
(4.00082e-05 -8.66702e-06 -7.78487e-23 2.02136e-05 -3.45286e-23 4.66073e-40)
(4.17683e-05 -1.43015e-05 0 2.25842e-05 0 0)
(4.35263e-05 -1.95656e-05 0 2.53725e-05 0 0)
(4.49808e-05 -2.46009e-05 0 2.84837e-05 0 0)
(2.29268e-06 1.06522e-05 0 5.25131e-05 0 0)
(3.49438e-06 1.48809e-05 4.48905e-23 6.66585e-05 1.16058e-22 1.55819e-38)
(4.95222e-06 1.95082e-05 -2.75069e-23 8.04244e-05 -6.91186e-23 4.11299e-39)
(6.56526e-06 2.4298e-05 -6.74317e-23 9.38293e-05 -1.68068e-22 1.62039e-38)
(8.28439e-06 2.90868e-05 7.86996e-23 0.00010636 1.92872e-22 1.60036e-38)
(1.00786e-05 3.37321e-05 -4.42527e-23 0.000117474 -1.06101e-22 3.88643e-39)
(1.19316e-05 3.81108e-05 0 0.000126646 0 0)
(1.38204e-05 4.20904e-05 -1.71688e-24 0.000133405 -3.90276e-24 3.45097e-42)
(1.57686e-05 4.56358e-05 0 0.000137486 0 0)
(1.77663e-05 4.87023e-05 0 0.000138917 0 0)
(1.97954e-05 5.10575e-05 -3.83514e-23 0.000136858 -7.92143e-23 8.18632e-40)
(2.1871e-05 5.27065e-05 3.88448e-23 0.000131656 7.67409e-23 7.30041e-40)
(2.39364e-05 5.35764e-05 0 0.000123732 0 0)
(2.59685e-05 5.36351e-05 -3.40515e-25 0.000113571 -6.22619e-25 3.59577e-44)
(2.79229e-05 5.28468e-05 3.38273e-22 0.000101791 5.94238e-22 2.85129e-38)
(2.9754e-05 5.11897e-05 -3.51569e-22 8.9084e-05 -5.9131e-22 2.85117e-38)
(3.14266e-05 4.86648e-05 3.70897e-25 7.61468e-05 5.97353e-25 2.57346e-44)
(3.29265e-05 4.5301e-05 0 6.36303e-05 0 0)
(3.42655e-05 4.1158e-05 4.75152e-23 5.20931e-05 6.89611e-23 3.09985e-40)
(3.54822e-05 3.63267e-05 -4.49822e-23 4.19713e-05 -6.13586e-23 2.71064e-40)
(3.66346e-05 3.09209e-05 -1.47497e-24 3.35578e-05 -1.85715e-24 2.49806e-43)
(3.77804e-05 2.50651e-05 0 2.70025e-05 0 0)
(3.89618e-05 1.8885e-05 2.86511e-24 2.232e-05 2.92376e-24 7.70697e-43)
(4.02071e-05 1.25181e-05 0 1.94303e-05 0 0)
(4.15312e-05 6.10245e-06 -8.69726e-23 1.816e-05 -6.52353e-23 5.75105e-40)
(4.29333e-05 -2.34249e-07 1.69854e-22 1.82643e-05 1.03133e-22 2.08221e-39)
(4.44043e-05 -6.3785e-06 -1.66904e-22 1.94573e-05 -7.73533e-23 1.85907e-39)
(4.59285e-05 -1.22291e-05 -8.07539e-23 2.14381e-05 -2.61234e-23 3.8257e-40)
(4.74511e-05 -1.76988e-05 1.66082e-22 2.39172e-05 3.09426e-23 1.61267e-39)
(4.82773e-05 -2.30173e-05 0 2.68869e-05 0 0)
(2.83923e-06 1.24615e-05 0 5.7562e-05 0 0)
(4.07748e-06 1.66421e-05 -5.06022e-23 7.1044e-05 -1.29729e-22 1.79199e-38)
(5.61628e-06 2.12659e-05 5.99406e-23 8.39435e-05 1.48967e-22 1.7322e-38)
(7.33368e-06 2.60502e-05 0 9.63088e-05 0 0)
(9.19022e-06 3.08443e-05 0 0.000107683 0 0)
(1.11743e-05 3.55338e-05 -1.48766e-24 0.000117579 -3.37261e-24 3.98973e-42)
(1.32822e-05 4.00096e-05 0 0.00012554 0 0)
(1.54963e-05 4.41431e-05 1.91572e-24 0.00013117 4.04999e-24 3.79034e-42)
(1.78693e-05 4.79512e-05 -3.37048e-23 0.000134395 -6.82474e-23 8.89349e-40)
(2.03531e-05 5.12839e-05 3.72193e-23 0.000135024 7.19375e-23 9.02805e-40)
(2.29676e-05 5.39786e-05 4.18247e-23 0.000132492 7.7651e-23 8.37112e-40)
(2.56835e-05 5.59958e-05 -4.39493e-23 0.000127216 -7.74737e-23 7.93691e-40)
(2.84369e-05 5.72481e-05 -1.45805e-24 0.000119559 -2.46135e-24 6.82842e-43)
(3.11717e-05 5.76727e-05 7.7227e-25 0.000109969 1.24921e-24 1.56141e-43)
(3.38066e-05 5.72065e-05 4.84659e-22 9.89932e-05 7.53828e-22 4.82583e-38)
(3.62584e-05 5.58044e-05 -5.05484e-22 8.72218e-05 -7.52352e-22 4.82559e-38)
(3.84583e-05 5.34499e-05 -8.59334e-25 7.52434e-05 -1.22777e-24 1.14161e-43)
(4.03671e-05 5.01619e-05 1.74358e-24 6.36034e-05 2.3818e-24 4.06336e-43)
(4.19831e-05 4.59988e-05 -5.57037e-23 5.27749e-05 -7.2313e-23 3.46263e-40)
(4.33427e-05 4.10574e-05 5.44451e-23 4.31381e-05 6.68516e-23 3.22519e-40)
(4.45116e-05 3.54638e-05 5.65391e-23 3.49647e-05 6.46015e-23 2.86064e-40)
(4.5565e-05 2.93594e-05 -5.48016e-23 2.84118e-05 -5.78158e-23 2.64802e-40)
(4.65697e-05 2.28933e-05 -3.31893e-24 2.35331e-05 -3.16599e-24 8.46454e-43)
(4.75778e-05 1.62185e-05 0 2.0292e-05 0 0)
(4.86241e-05 9.48382e-06 3.21786e-24 1.85684e-05 2.31442e-24 6.81201e-43)
(4.97231e-05 2.82478e-06 0 1.81742e-05 0 0)
(5.08828e-05 -3.63788e-06 0 1.8875e-05 0 0)
(5.21167e-05 -9.79496e-06 1.89419e-22 2.04114e-05 6.64646e-23 1.87851e-39)
(5.33686e-05 -1.55584e-05 -1.8336e-22 2.25186e-05 -4.1955e-23 1.71544e-39)
(5.35069e-05 -2.13004e-05 0 2.52633e-05 0 0)
(3.49655e-06 1.44483e-05 -4.44978e-23 6.23434e-05 -1.09088e-22 1.76275e-38)
(4.83214e-06 1.86618e-05 8.26919e-23 7.49664e-05 2.06782e-22 4.3437e-38)
(6.50003e-06 2.33134e-05 -3.27634e-23 8.68532e-05 -7.86247e-23 4.68565e-39)
(8.37921e-06 2.81269e-05 0 9.8061e-05 0 0)
(1.04475e-05 3.29746e-05 -4.57494e-23 0.00010819 -1.01264e-22 4.43896e-39)
(1.27106e-05 3.77593e-05 5.10525e-23 0.000116805 1.07565e-22 4.27086e-39)
(1.51761e-05 4.23791e-05 -5.81962e-23 0.00012352 -1.17327e-22 3.94969e-39)
(1.78338e-05 4.67112e-05 6.74317e-23 0.000128024 1.28477e-22 4.2916e-39)
(2.07624e-05 5.08069e-05 0 0.000130386 0 0)
(2.38865e-05 5.44266e-05 2.59609e-24 0.000130223 4.46753e-24 3.68668e-42)
(2.72475e-05 5.74712e-05 -4.59582e-23 0.000127293 -7.55315e-23 8.56234e-40)
(3.07773e-05 5.98597e-05 2.51091e-23 0.000122003 3.87154e-23 2.34567e-40)
(3.43986e-05 6.14951e-05 3.46002e-24 0.000114681 4.88747e-24 5.63845e-42)
(3.80155e-05 6.22887e-05 2.779e-23 0.000105737 3.93866e-23 1.72975e-40)
(4.15033e-05 6.21547e-05 6.62871e-22 9.5642e-05 9.06135e-22 7.3912e-38)
(4.4734e-05 6.10278e-05 -6.93198e-22 8.48907e-05 -9.07663e-22 7.39053e-38)
(4.75991e-05 5.88736e-05 3.30266e-23 7.39624e-05 4.16812e-23 1.29984e-40)
(5.00296e-05 5.56984e-05 -4.38227e-24 6.32982e-05 -5.31148e-24 3.88042e-42)
(5.2008e-05 5.15541e-05 3.23735e-23 5.32837e-05 3.73989e-23 8.57793e-41)
(5.35688e-05 4.65369e-05 -6.5975e-23 4.42382e-05 -7.26752e-23 3.81418e-40)
(5.47873e-05 4.07795e-05 -4.07265e-24 3.64052e-05 -4.21108e-24 1.25094e-42)
(5.57596e-05 3.44373e-05 0 2.99456e-05 0 0)
(5.65802e-05 2.76768e-05 1.24512e-22 2.49402e-05 1.09367e-22 9.40684e-40)
(5.73297e-05 2.0667e-05 -1.27418e-22 2.13935e-05 -1.00835e-22 9.79868e-40)
(5.80668e-05 1.35702e-05 1.22444e-22 1.92374e-05 8.45665e-23 7.90097e-40)
(5.8825e-05 6.53303e-06 -1.17558e-22 1.83395e-05 -6.93215e-23 7.23623e-40)
(5.9629e-05 -3.12494e-07 -7.16036e-24 1.85192e-05 -3.41681e-24 2.44472e-42)
(6.05192e-05 -6.84372e-06 -1.0969e-22 1.95636e-05 -4.09145e-23 5.30753e-40)
(6.14514e-05 -1.29647e-05 3.18703e-22 2.12387e-05 8.37326e-23 4.26813e-39)
(6.0837e-05 -1.92397e-05 -2.22517e-22 2.36529e-05 -3.21517e-23 2.06248e-39)
(4.33201e-06 1.66821e-05 2.39209e-23 6.66315e-05 5.71134e-23 4.46684e-39)
(5.83496e-06 2.09916e-05 -3.17868e-23 7.81947e-05 -7.58655e-23 5.70262e-39)
(7.69397e-06 2.57036e-05 -3.84714e-23 8.89456e-05 -8.7325e-23 5.5486e-39)
(9.80884e-06 3.05817e-05 4.57226e-23 9.89071e-05 9.80344e-23 5.69965e-39)
(1.21775e-05 3.55194e-05 -5.05311e-23 0.000107721 -1.02838e-22 4.80415e-39)
(1.48219e-05 4.04292e-05 6.21175e-23 0.000115015 1.18838e-22 5.55441e-39)
(1.77597e-05 4.52124e-05 2.03573e-24 0.000120475 3.63079e-24 4.52598e-42)
(2.09984e-05 4.97645e-05 0 0.000123886 0 0)
(2.46258e-05 5.41347e-05 -4.24905e-23 0.000125383 -6.83317e-23 1.05064e-39)
(2.85584e-05 5.80314e-05 -2.93354e-24 0.000124481 -4.98454e-24 9.96071e-43)
(3.28387e-05 6.14048e-05 -3.18897e-24 0.00012124 -5.14513e-24 8.36955e-43)
(3.73671e-05 6.41427e-05 5.90042e-23 0.00011601 7.98996e-23 1.0035e-39)
(4.20437e-05 6.61408e-05 2.89027e-23 0.000109099 3.76136e-23 1.7569e-40)
(4.67269e-05 6.72921e-05 -4.94951e-23 0.000100872 -6.13993e-23 4.39791e-40)
(5.12412e-05 6.74936e-05 8.91696e-22 9.17311e-05 1.06788e-21 1.0998e-37)
(5.54076e-05 6.66621e-05 -8.97757e-22 8.20731e-05 -1.0325e-21 1.0159e-37)
(5.90722e-05 6.47457e-05 -5.60518e-23 7.22739e-05 -6.23995e-23 3.14041e-40)
(6.21326e-05 6.1735e-05 4.30279e-23 6.26732e-05 4.62042e-23 1.68479e-40)
(6.45538e-05 5.76697e-05 7.65837e-23 5.35702e-05 7.90584e-23 4.27347e-40)
(6.63689e-05 5.26394e-05 4.07921e-24 4.52209e-05 3.8202e-24 5.93765e-43)
(6.76657e-05 4.67766e-05 3.9364e-24 3.78346e-05 3.42653e-24 5.5378e-43)
(6.85639e-05 4.02439e-05 -7.55342e-23 3.15678e-05 -6.65884e-23 3.30648e-40)
(6.91893e-05 3.32201e-05 0 2.65203e-05 0 0)
(6.96544e-05 2.58885e-05 -4.57291e-24 2.27329e-05 -3.35256e-24 9.92073e-43)
(7.00469e-05 1.84251e-05 1.30344e-22 2.01852e-05 8.58513e-23 7.31846e-40)
(7.0423e-05 1.09895e-05 -1.37252e-22 1.87978e-05 -7.89286e-23 8.14065e-40)
(7.08272e-05 3.72666e-06 1.3104e-22 1.84451e-05 6.33375e-23 6.64186e-40)
(7.13256e-05 -3.222e-06 -1.21433e-22 1.89625e-05 -4.74831e-23 5.69351e-40)
(7.1891e-05 -9.74713e-06 -1.17724e-22 2.01541e-05 -3.435e-23 4.77936e-40)
(7.04664e-05 -1.66428e-05 1.32198e-22 2.21311e-05 2.47964e-23 6.15137e-40)
(5.42866e-06 1.92198e-05 0 7.02094e-05 0 0)
(7.18143e-06 2.36727e-05 -3.13045e-23 8.05447e-05 -6.96686e-23 4.67097e-39)
(9.30746e-06 2.84701e-05 4.54121e-23 9.00656e-05 9.46117e-23 6.94084e-39)
(1.17469e-05 3.34358e-05 -5.10536e-23 9.87109e-05 -9.99012e-23 5.96558e-39)
(1.4519e-05 3.84791e-05 5.63464e-23 0.000106162 1.02682e-22 5.42794e-39)
(1.76612e-05 4.35185e-05 -6.13666e-23 0.000112116 -1.04924e-22 4.4787e-39)
(2.11996e-05 4.84545e-05 7.02775e-23 0.00011633 1.1144e-22 4.59878e-39)
(2.51846e-05 5.32318e-05 5.28001e-24 0.000118711 7.81837e-24 1.92281e-41)
(2.96591e-05 5.7817e-05 2.98371e-24 0.000119337 4.15042e-24 4.61649e-42)
(3.45835e-05 6.19583e-05 3.34116e-24 0.000117796 4.37767e-24 4.39617e-42)
(3.99662e-05 6.56156e-05 3.75078e-24 0.000114341 4.66646e-24 4.16322e-42)
(4.56862e-05 6.86622e-05 -2.05254e-24 0.000109256 -2.42402e-24 9.72305e-43)
(5.16092e-05 7.09897e-05 3.75407e-23 0.000102833 4.24605e-23 2.48893e-40)
(5.75415e-05 7.24807e-05 -1.89805e-23 9.53968e-05 -2.03163e-23 6.05297e-41)
(6.3251e-05 7.30203e-05 1.10159e-21 8.72739e-05 1.15564e-21 1.38485e-37)
(6.85016e-05 7.25102e-05 -1.19696e-21 7.87729e-05 -1.21075e-21 1.48739e-37)
(7.30899e-05 7.08803e-05 -2.1499e-23 7.01702e-05 -2.12344e-23 3.32743e-41)
(7.68778e-05 6.81022e-05 3.88008e-23 6.17096e-05 3.70587e-23 1.13786e-40)
(7.98119e-05 6.41979e-05 -2.79709e-24 5.36061e-05 -2.58633e-24 4.87072e-43)
(8.19251e-05 5.92433e-05 -1.11928e-23 4.60521e-05 -9.97185e-24 6.91221e-42)
(8.33208e-05 5.33635e-05 -5.57355e-24 3.92181e-05 -4.7439e-24 1.53966e-42)
(8.41459e-05 4.67211e-05 -5.50204e-24 3.32485e-05 -4.43224e-24 1.36766e-42)
(8.45601e-05 3.95016e-05 -1.0802e-23 2.82545e-05 -8.13428e-24 4.86163e-42)
(8.47122e-05 3.1899e-05 1.77336e-22 2.43059e-05 1.23139e-22 1.1863e-39)
(8.47223e-05 2.41019e-05 -1.7482e-22 2.14248e-05 -1.1038e-22 1.15335e-39)
(8.46729e-05 1.62829e-05 1.57675e-22 1.95816e-05 8.788e-23 8.34095e-40)
(8.46333e-05 8.60121e-06 -1.45542e-22 1.87033e-05 -7.02852e-23 7.15379e-40)
(8.46961e-05 1.21882e-06 1.29544e-22 1.86755e-05 5.21077e-23 5.08835e-40)
(8.48506e-05 -5.73618e-06 -1.5483e-22 1.93445e-05 -4.99909e-23 7.28366e-40)
(8.25728e-05 -1.33153e-05 0 2.07892e-05 0 0)
(6.88946e-06 2.20978e-05 0 7.28729e-05 0 0)
(8.98929e-06 2.67198e-05 -2.32734e-24 8.18427e-05 -4.67101e-24 2.2857e-41)
(1.14725e-05 3.16121e-05 3.97403e-23 9.0064e-05 7.44671e-23 4.39563e-39)
(1.43396e-05 3.66664e-05 3.75668e-27 9.73432e-05 3.05998e-25 2.34141e-42)
(1.7633e-05 4.18056e-05 -6.33088e-23 0.000103411 -1.01447e-22 5.89368e-39)
(2.14052e-05 4.69515e-05 -4.63953e-24 0.000108031 -6.92956e-24 2.22525e-41)
(2.56899e-05 5.20033e-05 -5.22146e-24 0.000111034 -7.15299e-24 2.16494e-41)
(3.05941e-05 5.69713e-05 4.20081e-23 0.000112464 5.40598e-23 9.94391e-40)
(3.60876e-05 6.17e-05 -5.79151e-23 0.000112257 -6.93235e-23 1.5018e-39)
(4.21948e-05 6.60324e-05 -5.3613e-26 0.000110211 -8.96233e-26 1.07234e-46)
(4.88695e-05 6.99074e-05 3.38638e-23 0.000106635 3.63734e-23 2.7992e-40)
(5.59757e-05 7.3209e-05 -3.71271e-23 0.000101785 -3.75858e-23 2.8329e-40)
(6.33331e-05 7.58268e-05 1.76212e-23 9.59319e-05 1.73043e-23 4.5886e-41)
(7.06898e-05 7.76395e-05 -2.16107e-23 8.93518e-05 -2.03019e-23 6.06952e-41)
(7.77508e-05 7.85255e-05 1.40448e-21 8.23035e-05 1.29169e-21 1.89067e-37)
(8.42188e-05 7.83728e-05 -1.47283e-21 7.50108e-05 -1.31336e-21 1.89069e-37)
(8.9838e-05 7.70922e-05 -2.48192e-23 6.76584e-05 -2.17085e-23 4.0785e-41)
(9.44334e-05 7.46322e-05 2.86634e-23 6.04004e-05 2.44599e-23 5.10072e-41)
(9.79343e-05 7.09912e-05 -4.81965e-23 5.33723e-05 -4.00767e-23 1.14025e-40)
(0.000100375 6.62242e-05 6.47811e-23 4.67036e-05 5.23788e-23 1.98853e-40)
(0.000101879 6.04416e-05 -4.00429e-26 4.05229e-05 -2.11638e-26 5.81785e-47)
(0.000102622 5.37988e-05 -1.01189e-22 3.49561e-05 -7.50952e-23 3.67509e-40)
(0.000102803 4.64821e-05 1.12582e-22 3.01177e-05 7.93838e-23 4.52829e-40)
(0.000102609 3.8692e-05 1.2253e-23 2.60997e-05 8.01104e-24 4.7935e-42)
(0.000102197 3.0628e-05 1.17823e-23 2.29595e-05 7.12468e-24 4.20812e-42)
(0.000101679 2.2474e-05 -1.83004e-22 2.07125e-05 -9.92298e-23 9.29132e-40)
(0.000101151 1.44052e-05 2.45806e-24 1.93344e-05 1.47438e-24 2.70191e-42)
(0.000100738 6.60323e-06 1.95379e-22 1.87621e-05 8.0754e-23 1.01286e-39)
(0.000100443 -7.83063e-07 0 1.88863e-05 0 0)
(9.72898e-05 -9.07462e-06 0 1.97225e-05 0 0)
(8.84171e-06 2.53228e-05 0 7.44285e-05 0 0)
(1.14017e-05 3.0111e-05 4.53882e-23 8.19314e-05 8.11521e-23 7.05272e-39)
(1.43455e-05 3.50832e-05 5.96113e-26 8.88067e-05 3.59458e-25 2.16522e-42)
(1.77573e-05 4.02011e-05 -2.29807e-26 9.47006e-05 2.72759e-25 2.60207e-42)
(2.17053e-05 4.54e-05 -1.3826e-22 9.9395e-05 -1.91217e-22 2.35606e-38)
(2.62553e-05 5.06035e-05 8.28645e-23 0.000102725 1.05107e-22 6.32556e-39)
(3.1456e-05 5.57207e-05 5.99027e-24 0.000104596 7.06638e-24 2.36494e-41)
(3.74401e-05 6.0789e-05 0 0.000105146 0 0)
(4.41478e-05 6.55858e-05 -5.77205e-23 0.000104201 -5.93892e-23 1.20095e-39)
(5.16291e-05 7.00312e-05 6.45345e-23 0.000101784 6.17293e-23 1.22902e-39)
(5.97904e-05 7.40526e-05 -3.82822e-23 9.8195e-05 -3.52118e-23 3.07005e-40)
(6.84728e-05 7.75507e-05 -9.38554e-26 9.36749e-05 -5.301e-25 6.16101e-43)
(7.74423e-05 8.04205e-05 4.55567e-23 8.84674e-05 3.83008e-23 2.89323e-40)
(8.63828e-05 8.25438e-05 -1.52593e-24 8.28023e-05 -1.25399e-24 2.48903e-43)
(9.49321e-05 8.37949e-05 1.72114e-21 7.68725e-05 1.39052e-21 2.41636e-37)
(0.000102728 8.40494e-05 -1.80499e-21 7.0824e-05 -1.42366e-21 2.41858e-37)
(0.000109461 8.31969e-05 1.76886e-24 6.47591e-05 1.37709e-24 1.84154e-43)
(0.000114921 8.11581e-05 5.80071e-23 5.875e-05 4.44655e-23 1.60267e-40)
(0.00011902 7.79015e-05 -1.58431e-25 5.28585e-05 -1.8504e-25 6.26179e-43)
(0.0001218 7.34544e-05 -7.41377e-23 4.71531e-05 -5.46456e-23 2.18371e-40)
(0.000123404 6.79048e-05 1.25026e-22 4.17188e-05 8.92817e-23 5.14459e-40)
(0.000124045 6.13946e-05 -1.17144e-22 3.66578e-05 -8.10013e-23 4.46213e-40)
(0.000123961 5.41049e-05 0 3.20808e-05 0 0)
(0.000123382 4.62386e-05 -1.39448e-23 2.80938e-05 -8.68323e-24 5.23659e-42)
(0.000122505 3.80029e-05 2.17399e-22 2.47824e-05 1.25298e-22 1.15194e-39)
(0.000121474 2.95925e-05 -4.37621e-22 2.22006e-05 -2.31663e-22 4.56573e-39)
(0.000120417 2.1198e-05 2.58079e-24 2.03686e-05 1.60358e-24 2.97497e-42)
(0.000119488 1.30208e-05 -1.00404e-23 1.92724e-05 -3.89255e-24 1.69377e-42)
(0.000118707 5.22864e-06 1.9356e-22 1.88493e-05 6.99525e-23 7.93647e-40)
(0.000114681 -3.76459e-06 0 1.90265e-05 0 0)
(1.14389e-05 2.886e-05 5.00907e-24 7.47054e-05 8.34307e-24 1.12031e-40)
(1.4587e-05 3.37766e-05 0 8.06831e-05 0 0)
(1.81081e-05 3.87873e-05 3.67114e-24 8.61945e-05 5.17287e-24 2.69592e-41)
(2.21951e-05 4.39171e-05 -6.43105e-23 9.07179e-05 -8.23687e-23 5.92897e-39)
(2.69433e-05 4.91114e-05 8.01782e-23 9.40866e-05 9.31429e-23 6.98151e-39)
(3.24287e-05 5.42955e-05 -9.32034e-23 9.62056e-05 -1.00016e-22 6.58876e-39)
(3.87292e-05 5.94069e-05 1.06707e-22 9.7063e-05 1.04544e-22 6.77116e-39)
(4.59611e-05 6.44608e-05 6.09807e-23 9.68093e-05 5.61929e-23 1.56036e-39)
(5.4081e-05 6.9235e-05 -1.46679e-22 9.52607e-05 -1.2621e-22 6.99307e-39)
(6.31243e-05 7.37049e-05 -5.05982e-24 9.26132e-05 -4.99456e-24 1.52882e-42)
(7.29607e-05 7.77979e-05 8.02949e-23 8.91276e-05 6.19819e-23 1.28034e-39)
(8.33965e-05 8.14359e-05 -4.72093e-23 8.50306e-05 -3.56867e-23 3.14808e-40)
(9.41371e-05 8.45271e-05 2.54342e-23 8.05382e-05 1.82425e-23 8.66063e-41)
(0.000104798 8.69613e-05 4.29749e-23 7.58338e-05 3.07875e-23 1.73309e-40)
(0.000114945 8.86116e-05 2.05462e-21 7.10502e-05 1.46153e-21 2.9767e-37)
(0.00012415 8.93401e-05 -2.18158e-21 6.62643e-05 -1.52739e-21 3.05942e-37)
(0.00013205 8.9012e-05 4.59232e-23 6.15054e-05 3.20186e-23 1.04974e-40)
(0.0001384 8.75153e-05 3.28552e-23 5.67736e-05 2.27325e-23 3.94175e-41)
(0.000143103 8.4782e-05 -6.67568e-23 5.20634e-05 -4.57418e-23 1.73794e-40)
(0.000146208 8.08046e-05 1.51067e-22 4.73855e-05 1.01795e-22 7.10972e-40)
(0.000147886 7.56422e-05 7.9465e-24 4.27807e-05 4.83239e-24 9.56e-43)
(0.000148386 6.94167e-05 -2.4916e-22 3.83232e-05 -1.60227e-22 1.6388e-39)
(0.000147993 6.22987e-05 1.31205e-22 3.41133e-05 8.15306e-23 4.34634e-40)
(0.000146983 5.44896e-05 2.55102e-22 3.02631e-05 1.50207e-22 1.41829e-39)
(0.000145594 4.62012e-05 -2.50677e-22 2.68788e-05 -1.39822e-22 1.37927e-39)
(0.000144005 3.76379e-05 2.41031e-22 2.40461e-05 1.24278e-22 1.1315e-39)
(0.000142377 2.90047e-05 -2.50945e-22 2.18251e-05 -1.18825e-22 1.23426e-39)
(0.000140897 2.05229e-05 1.43123e-23 2.02462e-05 6.04519e-24 3.67335e-42)
(0.000139596 1.23766e-05 0 1.92919e-05 0 0)
(0.000134724 2.73407e-06 -2.80517e-23 1.87889e-05 -8.43015e-24 1.27371e-41)
(1.48617e-05 3.26235e-05 -5.83583e-24 7.35682e-05 -8.45742e-24 1.21159e-40)
(1.87394e-05 3.75942e-05 5.81937e-23 7.80116e-05 7.5366e-23 8.31703e-39)
(2.29652e-05 4.25743e-05 -6.54458e-23 8.21791e-05 -7.6217e-23 7.64683e-39)
(2.78677e-05 4.76363e-05 -4.86703e-24 8.53847e-05 -5.19393e-24 2.92605e-41)