# Residuals   
# Time        	p             	Ux            	Uy            
0             	N/A           	N/A           	N/A           
0.1           	1.000000e+00	1.000000e+00	1.000000e+00
0.2           	2.617872e-01	2.691705e-01	3.688191e-01
0.3           	4.560678e-01	2.934256e-01	4.116221e-01
0.4           	5.657012e-01	1.022670e-01	1.782808e-01
0.5           	9.008897e-01	6.270774e-02	1.359677e-01
0.6           	8.363630e-01	5.174325e-02	9.695967e-02
0.7           	8.786947e-01	3.527499e-02	6.440904e-02
0.8           	8.745229e-01	3.480671e-02	5.937234e-02
0.9           	8.316240e-01	2.855639e-02	4.525921e-02
1             	9.117899e-01	2.720203e-02	3.980326e-02
1.1           	7.922926e-01	2.730377e-02	4.513059e-02
1.2           	9.101962e-01	2.571881e-02	3.184815e-02
1.3           	8.356074e-01	2.613042e-02	4.459683e-02
1.4           	9.020080e-01	2.351881e-02	3.018708e-02
1.5           	8.249791e-01	2.418292e-02	4.307499e-02
1.6           	9.104146e-01	2.185512e-02	2.948111e-02
1.7           	8.214487e-01	2.240383e-02	4.108983e-02
1.8           	8.966996e-01	2.033413e-02	2.855695e-02
1.9           	8.194393e-01	2.076193e-02	3.893630e-02
2             	8.848894e-01	1.892074e-02	2.743547e-02
2.1           	8.182009e-01	1.926720e-02	3.679339e-02
2.2           	8.743434e-01	1.762643e-02	2.619577e-02
2.3           	8.172012e-01	1.791927e-02	3.472978e-02
2.4           	8.644122e-01	1.644930e-02	2.492663e-02
2.5           	8.163734e-01	1.670372e-02	3.278068e-02
2.6           	8.548752e-01	1.538096e-02	2.367710e-02
2.7           	8.155263e-01	1.560584e-02	3.095780e-02
2.8           	8.457775e-01	1.441072e-02	2.247314e-02
2.9           	8.146700e-01	1.461190e-02	2.926133e-02
3             	8.369413e-01	1.352795e-02	2.132840e-02
3.1           	8.139461e-01	1.370896e-02	2.768654e-02
3.2           	8.282300e-01	1.272229e-02	2.024803e-02
3.3           	8.132276e-01	1.288626e-02	2.622636e-02
3.4           	8.198243e-01	1.197901e-02	1.922194e-02
3.5           	8.124728e-01	1.212693e-02	2.485894e-02
3.6           	8.112325e-01	1.129896e-02	1.826295e-02
3.7           	8.121445e-01	1.142740e-02	2.357959e-02
3.8           	8.027501e-01	1.067022e-02	1.735418e-02
3.9           	8.116016e-01	1.078662e-02	2.239494e-02
4             	7.942522e-01	1.009354e-02	1.650779e-02
4.1           	8.112186e-01	1.019750e-02	2.129494e-02
4.2           	7.858223e-01	9.562628e-03	1.571656e-02
4.3           	8.106885e-01	9.653489e-03	2.026963e-02
4.4           	7.772818e-01	9.072107e-03	1.497683e-02
4.5           	8.108421e-01	9.153540e-03	1.931205e-02
4.6           	7.685286e-01	8.617767e-03	1.428345e-02
4.7           	8.109184e-01	8.689653e-03	1.841609e-02
4.8           	7.598303e-01	8.196919e-03	1.363342e-02
4.9           	8.110843e-01	8.258760e-03	1.757732e-02
5             	7.511725e-01	7.806661e-03	1.302416e-02
5.1           	8.113704e-01	7.858799e-03	1.679168e-02
5.2           	7.425185e-01	7.445141e-03	1.245339e-02
5.3           	8.118482e-01	7.486298e-03	1.605498e-02
5.4           	7.338500e-01	7.109562e-03	1.191788e-02
5.5           	8.125606e-01	7.139099e-03	1.536330e-02
5.6           	7.251412e-01	6.798151e-03	1.141503e-02
5.7           	8.134740e-01	6.815345e-03	1.471285e-02
5.8           	7.163270e-01	6.510355e-03	1.094227e-02
5.9           	8.146231e-01	6.513312e-03	1.410066e-02
6             	7.074872e-01	6.246160e-03	1.049779e-02
6.1           	8.160282e-01	6.230806e-03	1.352395e-02
6.2           	6.986394e-01	6.006897e-03	1.007914e-02
6.3           	8.177280e-01	5.966359e-03	1.297976e-02
6.4           	6.897625e-01	5.791734e-03	9.684317e-03
6.5           	8.197193e-01	5.718542e-03	1.246587e-02
6.6           	6.808408e-01	5.589610e-03	9.311880e-03
6.7           	8.219734e-01	5.485749e-03	1.197998e-02
6.8           	6.718798e-01	5.398843e-03	8.959840e-03
6.9           	8.245336e-01	5.267165e-03	1.151999e-02
7             	6.628921e-01	5.218822e-03	8.627350e-03
7.1           	8.274013e-01	5.061979e-03	1.108430e-02
7.2           	6.538643e-01	5.048773e-03	8.312879e-03
7.3           	8.305728e-01	4.869102e-03	1.067125e-02
7.4           	6.448135e-01	4.888039e-03	8.015520e-03
7.5           	8.266670e-01	4.687889e-03	1.027956e-02
7.6           	6.357532e-01	4.736005e-03	7.733853e-03
7.7           	8.155734e-01	4.517248e-03	9.907835e-03
7.8           	6.266685e-01	4.592114e-03	7.467011e-03
7.9           	8.042326e-01	4.356454e-03	9.554780e-03
8             	6.176086e-01	4.455703e-03	7.213719e-03
8.1           	7.926024e-01	4.205075e-03	9.219161e-03
8.2           	6.085055e-01	4.326521e-03	6.973221e-03
8.3           	7.808791e-01	4.062276e-03	8.899865e-03
8.4           	5.993870e-01	4.203994e-03	6.744885e-03
8.5           	7.689913e-01	3.927484e-03	8.595978e-03
8.6           	5.902837e-01	4.087723e-03	6.527886e-03
8.7           	7.569135e-01	3.800435e-03	8.306645e-03
8.8           	5.811963e-01	3.977408e-03	6.321476e-03
8.9           	7.447303e-01	3.680746e-03	8.031068e-03
9             	5.721083e-01	3.872644e-03	6.125095e-03
9.1           	7.323740e-01	3.567825e-03	7.768419e-03
9.2           	5.630447e-01	3.772975e-03	5.938071e-03
9.3           	7.200223e-01	3.460852e-03	7.517532e-03
9.4           	5.538696e-01	3.678760e-03	5.759593e-03
9.5           	7.075305e-01	3.359883e-03	7.278261e-03
9.6           	5.449046e-01	3.586157e-03	5.584442e-03
9.7           	6.945891e-01	3.261281e-03	7.040687e-03
9.8           	5.357006e-01	3.498326e-03	5.417998e-03
9.9           	6.816855e-01	3.168827e-03	6.816732e-03
10            	5.266136e-01	3.414816e-03	5.259952e-03
10.1          	6.679344e-01	3.080764e-03	6.594379e-03
10.2          	5.175117e-01	3.332924e-03	5.104016e-03
10.3          	6.547463e-01	2.996999e-03	6.385315e-03
10.4          	5.084052e-01	3.255469e-03	4.956975e-03
10.5          	6.416962e-01	2.918379e-03	6.187896e-03
10.6          	4.993611e-01	3.182015e-03	4.817436e-03
10.7          	6.287513e-01	2.844492e-03	6.000286e-03
10.8          	4.903905e-01	3.112224e-03	4.684623e-03
10.9          	6.159460e-01	2.774796e-03	5.821466e-03
11            	4.815137e-01	3.045809e-03	4.557829e-03
11.1          	6.032737e-01	2.708985e-03	5.650629e-03
11.2          	4.727307e-01	2.982543e-03	4.436525e-03
11.3          	5.907473e-01	2.646773e-03	5.487187e-03
11.4          	4.640311e-01	2.922234e-03	4.320364e-03
11.5          	5.783724e-01	2.587788e-03	5.330656e-03
11.6          	4.554142e-01	2.864617e-03	4.208919e-03
11.7          	5.661541e-01	2.531970e-03	5.180723e-03
11.8          	4.468971e-01	2.809633e-03	4.102107e-03
11.9          	5.540933e-01	2.479084e-03	5.037039e-03
12            	4.384822e-01	2.757119e-03	3.999711e-03
12.1          	5.422049e-01	2.429011e-03	4.899269e-03
12.2          	4.301811e-01	2.706950e-03	3.901502e-03
12.3          	5.305042e-01	2.381653e-03	4.767093e-03
12.4          	4.220027e-01	2.658991e-03	3.807180e-03
12.5          	5.190213e-01	2.336741e-03	4.640288e-03
12.6          	4.139560e-01	2.613083e-03	3.716581e-03
12.7          	5.077759e-01	2.293988e-03	4.518564e-03
12.8          	4.061363e-01	2.568725e-03	3.629432e-03
12.9          	4.969516e-01	2.252913e-03	4.401527e-03
13            	3.982732e-01	2.526993e-03	3.545500e-03
13.1          	4.857688e-01	2.215398e-03	4.288908e-03
13.2          	3.903428e-01	2.487851e-03	3.464655e-03
13.3          	4.746786e-01	2.180171e-03	4.180502e-03
13.4          	3.827620e-01	2.449410e-03	3.386748e-03
13.5          	4.645230e-01	2.144684e-03	4.076141e-03
13.6          	3.754259e-01	2.412055e-03	3.311680e-03
13.7          	4.543839e-01	2.111336e-03	3.975651e-03
13.8          	3.681543e-01	2.376417e-03	3.239246e-03
13.9          	4.443988e-01	2.079720e-03	3.878874e-03
14            	3.609938e-01	2.342258e-03	3.169324e-03
14.1          	4.346129e-01	2.049621e-03	3.785619e-03
14.2          	3.539554e-01	2.309454e-03	3.101809e-03
14.3          	4.250467e-01	2.020926e-03	3.695698e-03
14.4          	3.470452e-01	2.277912e-03	3.036621e-03
14.5          	4.156988e-01	1.993486e-03	3.608976e-03
14.6          	3.402719e-01	2.247545e-03	2.973646e-03
14.7          	4.065674e-01	1.967214e-03	3.525302e-03
14.8          	3.336383e-01	2.218281e-03	2.912731e-03
14.9          	3.976596e-01	1.942083e-03	3.444550e-03
15            	3.271403e-01	2.190063e-03	2.853773e-03
15.1          	3.889605e-01	1.917992e-03	3.366558e-03
15.2          	3.207687e-01	2.162841e-03	2.796711e-03
15.3          	3.804670e-01	1.894892e-03	3.291180e-03
15.4          	3.145167e-01	2.136557e-03	2.741438e-03
15.5          	3.721820e-01	1.872727e-03	3.218326e-03
15.6          	3.084119e-01	2.111059e-03	2.687940e-03
15.7          	3.640718e-01	1.851495e-03	3.147858e-03
15.8          	3.024226e-01	2.086470e-03	2.636099e-03
15.9          	3.561576e-01	1.831037e-03	3.079668e-03
16            	2.965831e-01	2.062588e-03	2.585824e-03
16.1          	3.484565e-01	1.811329e-03	3.013667e-03
16.2          	2.908515e-01	2.039537e-03	2.537007e-03
16.3          	3.409539e-01	1.792294e-03	2.949801e-03
16.4          	2.852393e-01	2.017181e-03	2.489616e-03
16.5          	3.336472e-01	1.773912e-03	2.887948e-03
16.6          	2.797481e-01	1.995482e-03	2.443618e-03
16.7          	3.265318e-01	1.756155e-03	2.828038e-03
16.8          	2.743722e-01	1.974410e-03	2.398945e-03
16.9          	3.195991e-01	1.738973e-03	2.769990e-03
17            	2.691177e-01	1.953926e-03	2.355500e-03
17.1          	3.128407e-01	1.722324e-03	2.713703e-03
17.2          	2.639826e-01	1.934004e-03	2.313235e-03
17.3          	3.062538e-01	1.706180e-03	2.659109e-03
17.4          	2.589639e-01	1.914614e-03	2.272156e-03
17.5          	2.998417e-01	1.690529e-03	2.606088e-03
17.6          	2.540608e-01	1.895737e-03	2.232226e-03
17.7          	2.936016e-01	1.675327e-03	2.554647e-03
17.8          	2.492756e-01	1.877350e-03	2.193389e-03
17.9          	2.875308e-01	1.660538e-03	2.504722e-03
18            	2.446025e-01	1.859442e-03	2.155607e-03
18.1          	2.816234e-01	1.646167e-03	2.456252e-03
18.2          	2.400404e-01	1.841982e-03	2.118835e-03
18.3          	2.758786e-01	1.632175e-03	2.409234e-03
18.4          	2.355856e-01	1.824947e-03	2.083030e-03
18.5          	2.702938e-01	1.618543e-03	2.363570e-03
18.6          	2.312411e-01	1.808316e-03	2.048152e-03
18.7          	2.648676e-01	1.605235e-03	2.319252e-03
18.8          	2.270035e-01	1.792059e-03	2.014159e-03
18.9          	2.595876e-01	1.592237e-03	2.276190e-03
19            	2.228714e-01	1.776158e-03	1.981011e-03
19.1          	2.544474e-01	1.579528e-03	2.234324e-03
19.2          	2.188379e-01	1.760597e-03	1.948725e-03
19.3          	2.494470e-01	1.567093e-03	2.193609e-03
19.4          	2.149034e-01	1.745368e-03	1.917195e-03
19.5          	2.445876e-01	1.554902e-03	2.154000e-03
19.6          	2.110672e-01	1.730449e-03	1.886417e-03
19.7          	2.398611e-01	1.542962e-03	2.115470e-03
19.8          	2.073250e-01	1.715828e-03	1.856375e-03
19.9          	2.352633e-01	1.531257e-03	2.078006e-03
20            	2.036700e-01	1.701489e-03	1.827039e-03
20.1          	2.307925e-01	1.519772e-03	2.041517e-03
20.2          	2.001040e-01	1.687415e-03	1.798407e-03
20.3          	2.264436e-01	1.508493e-03	2.005968e-03
20.4          	1.966265e-01	1.673595e-03	1.770443e-03
20.5          	2.222151e-01	1.497398e-03	1.971340e-03
20.6          	1.932334e-01	1.660016e-03	1.743144e-03
20.7          	2.181008e-01	1.486467e-03	1.937613e-03
20.8          	1.899259e-01	1.646665e-03	1.716486e-03
20.9          	2.141000e-01	1.475694e-03	1.904770e-03
21            	1.866987e-01	1.633540e-03	1.690462e-03
21.1          	2.102090e-01	1.465070e-03	1.872708e-03
21.2          	1.835497e-01	1.620631e-03	1.665057e-03
21.3          	2.064230e-01	1.454592e-03	1.841415e-03
21.4          	1.804575e-01	1.607922e-03	1.640217e-03
21.5          	2.027363e-01	1.444249e-03	1.810911e-03
21.6          	1.774405e-01	1.595408e-03	1.615928e-03
21.7          	1.991493e-01	1.434039e-03	1.781151e-03
21.8          	1.745179e-01	1.583079e-03	1.592176e-03
21.9          	1.956668e-01	1.423962e-03	1.752105e-03
22            	1.716523e-01	1.570932e-03	1.568931e-03
22.1          	1.922858e-01	1.413978e-03	1.723734e-03
22.2          	1.688575e-01	1.558967e-03	1.546148e-03
22.3          	1.889976e-01	1.404113e-03	1.696016e-03
22.4          	1.661608e-01	1.547061e-03	1.523807e-03
22.5          	1.858903e-01	1.394040e-03	1.668912e-03
22.6          	1.637010e-01	1.534229e-03	1.501735e-03
22.7          	1.828947e-01	1.383508e-03	1.642595e-03
22.8          	1.608497e-01	1.524877e-03	1.480629e-03
22.9          	1.793482e-01	1.376924e-03	1.616883e-03
23            	1.580856e-01	1.515525e-03	1.459808e-03
23.1          	1.759484e-01	1.370426e-03	1.591813e-03
23.2          	1.549747e-01	1.510459e-03	1.439841e-03
23.3          	1.707856e-01	1.374583e-03	1.567525e-03
23.4          	1.521430e-01	1.500730e-03	1.419529e-03
23.5          	1.701515e-01	1.353473e-03	1.543011e-03
23.6          	1.506516e-01	1.482887e-03	1.399398e-03
23.7          	1.679847e-01	1.339731e-03	1.519468e-03
23.8          	1.485606e-01	1.469722e-03	1.378290e-03
23.9          	1.655210e-01	1.327795e-03	1.495707e-03
24            	1.461543e-01	1.457999e-03	1.358646e-03
24.1          	1.627714e-01	1.316677e-03	1.470447e-03
24.2          	1.437004e-01	1.446965e-03	1.338578e-03
24.3          	1.600419e-01	1.306239e-03	1.446792e-03
24.4          	1.413293e-01	1.435717e-03	1.319308e-03
24.5          	1.573425e-01	1.296312e-03	1.423860e-03
24.6          	1.390468e-01	1.424479e-03	1.300572e-03
24.7          	1.542665e-01	1.286672e-03	1.401522e-03
24.8          	1.356839e-01	1.408554e-03	1.277906e-03
24.9          	1.494893e-01	1.275449e-03	1.369197e-03
25            	1.319536e-01	1.392099e-03	1.254497e-03
25.1          	1.448818e-01	1.263648e-03	1.338865e-03
25.2          	1.282950e-01	1.376425e-03	1.231498e-03
25.3          	1.404629e-01	1.252094e-03	1.310106e-03
25.4          	1.247608e-01	1.361282e-03	1.209148e-03
25.5          	1.362623e-01	1.240593e-03	1.282641e-03
25.6          	1.213487e-01	1.346681e-03	1.187477e-03
25.7          	1.322457e-01	1.229304e-03	1.256314e-03
25.8          	1.180609e-01	1.332489e-03	1.166492e-03
25.9          	1.283958e-01	1.218241e-03	1.230986e-03
26            	1.148912e-01	1.318669e-03	1.146168e-03
26.1          	1.247047e-01	1.207391e-03	1.206559e-03
26.2          	1.118392e-01	1.305183e-03	1.126477e-03
26.3          	1.211622e-01	1.196749e-03	1.183033e-03
26.4          	1.085782e-01	1.292024e-03	1.107392e-03
26.5          	1.163240e-01	1.186184e-03	1.153945e-03
26.6          	1.045533e-01	1.274975e-03	1.084092e-03
26.7          	1.114893e-01	1.174412e-03	1.125923e-03
26.8          	1.006377e-01	1.258871e-03	1.062019e-03
26.9          	1.069684e-01	1.162603e-03	1.099849e-03
27            	9.690485e-02	1.243528e-03	1.041039e-03
27.1          	1.027109e-01	1.151078e-03	1.075367e-03
27.2          	9.334780e-02	1.228844e-03	1.020975e-03
27.3          	9.869129e-02	1.139870e-03	1.052317e-03
27.4          	8.996027e-02	1.214711e-03	1.001766e-03
27.5          	9.489007e-02	1.128967e-03	1.030458e-03
27.6          	8.673263e-02	1.201072e-03	9.833348e-04
27.7          	9.128093e-02	1.118429e-03	1.009647e-03
27.8          	8.367148e-02	1.187707e-03	9.656235e-04
27.9          	8.785537e-02	1.108175e-03	9.897961e-04
28            	8.073892e-02	1.174915e-03	9.485803e-04
28.1          	8.461191e-02	1.098073e-03	9.707931e-04
28.2          	7.794133e-02	1.162516e-03	9.321578e-04
28.3          	8.153065e-02	1.088206e-03	9.525345e-04
28.4          	7.527196e-02	1.150470e-03	9.163551e-04
28.5          	7.860246e-02	1.078561e-03	9.349892e-04
28.6          	7.272481e-02	1.138741e-03	9.011164e-04
28.7          	7.575689e-02	1.069869e-03	9.176284e-04
28.8          	7.026461e-02	1.127439e-03	8.861969e-04
28.9          	7.310438e-02	1.060596e-03	9.013725e-04
29            	6.793914e-02	1.116274e-03	8.719379e-04
29.1          	7.058401e-02	1.051496e-03	8.858629e-04
29.2          	6.572001e-02	1.105379e-03	8.581469e-04
29.3          	6.818397e-02	1.042562e-03	8.709051e-04
29.4          	6.360088e-02	1.094741e-03	8.447804e-04
29.5          	6.589527e-02	1.033806e-03	8.564705e-04
29.6          	6.157716e-02	1.084341e-03	8.318376e-04
29.7          	6.371573e-02	1.025189e-03	8.425235e-04
29.8          	5.964050e-02	1.074152e-03	8.192856e-04
29.9          	6.163730e-02	1.016702e-03	8.290323e-04
30            	5.778683e-02	1.064166e-03	8.070952e-04
30.1          	5.965355e-02	1.008339e-03	8.159938e-04
30.2          	5.602685e-02	1.053793e-03	7.953416e-04
30.3          	5.775917e-02	9.999740e-04	8.034319e-04
30.4          	5.432437e-02	1.044162e-03	7.838108e-04
30.5          	5.594489e-02	9.918444e-04	7.911633e-04
30.6          	5.269200e-02	1.034713e-03	7.725624e-04
30.7          	5.421149e-02	9.838219e-04	7.792481e-04
30.8          	5.112736e-02	1.025424e-03	7.616373e-04
30.9          	5.255313e-02	9.759044e-04	7.676835e-04
31            	4.962854e-02	1.016286e-03	7.509958e-04
31.1          	5.096568e-02	9.680827e-04	7.564365e-04
31.2          	4.819040e-02	1.007287e-03	7.406330e-04
31.3          	4.944693e-02	9.603490e-04	7.454983e-04
31.4          	4.681041e-02	9.984169e-04	7.305373e-04
31.5          	4.799253e-02	9.526985e-04	7.348802e-04
31.6          	4.548541e-02	9.896682e-04	7.206805e-04
31.7          	4.659797e-02	9.451282e-04	7.245395e-04
31.8          	4.421153e-02	9.810381e-04	7.110633e-04
31.9          	4.525909e-02	9.376373e-04	7.144707e-04
32            	4.298531e-02	9.725271e-04	7.016649e-04
32.1          	4.397246e-02	9.302232e-04	7.046525e-04
32.2          	4.180519e-02	9.641292e-04	6.924710e-04
32.3          	4.273597e-02	9.228864e-04	6.950886e-04
32.4          	4.067413e-02	9.558394e-04	6.834915e-04
32.5          	4.155273e-02	9.156211e-04	6.857808e-04
32.6          	3.957382e-02	9.476549e-04	6.747075e-04
32.7          	3.881408e-02	9.073346e-04	6.729522e-04
32.8          	3.656205e-02	9.344953e-04	6.636698e-04
32.9          	3.675509e-02	9.030800e-04	6.603586e-04
33            	3.651469e-02	9.261570e-04	6.552171e-04
33.1          	3.722865e-02	8.948143e-04	6.538661e-04
33.2          	3.576589e-02	9.216640e-04	6.476381e-04
33.3          	3.641566e-02	8.881096e-04	6.464924e-04
33.4          	3.502396e-02	9.143072e-04	6.400030e-04
33.5          	3.565552e-02	8.808753e-04	6.392394e-04
33.6          	3.424214e-02	9.070713e-04	6.324003e-04
33.7          	3.483900e-02	8.739222e-04	6.319478e-04
33.8          	3.346370e-02	8.997970e-04	6.248467e-04
33.9          	3.269794e-02	8.661323e-04	6.218469e-04
34            	3.099820e-02	8.883301e-04	6.157907e-04
34.1          	3.109643e-02	8.616903e-04	6.116426e-04
34.2          	3.106078e-02	8.805598e-04	6.083086e-04
34.3          	3.159567e-02	8.537123e-04	6.057154e-04
34.4          	3.054454e-02	8.758557e-04	6.014080e-04
34.5          	3.102708e-02	8.464248e-04	5.990758e-04
34.6          	3.006233e-02	8.676433e-04	5.943615e-04
34.7          	3.040121e-02	8.393602e-04	5.929611e-04
34.8          	2.927966e-02	8.633969e-04	5.880872e-04
34.9          	2.849587e-02	8.349335e-04	5.845990e-04
35            	2.709875e-02	8.546497e-04	5.803621e-04
35.1          	2.710736e-02	8.321116e-04	5.759621e-04
35.2          	2.618027e-02	8.486728e-04	5.731143e-04
35.3          	2.622275e-02	8.281676e-04	5.686705e-04
35.4          	2.630637e-02	8.442485e-04	5.670147e-04
35.5          	2.658411e-02	8.240625e-04	5.638412e-04
35.6          	2.580038e-02	8.456622e-04	5.616768e-04
35.7          	2.580095e-02	8.277378e-04	5.595731e-04
35.8          	2.487727e-02	8.564873e-04	5.573783e-04
35.9          	2.516693e-02	8.294325e-04	5.541724e-04
36            	2.467762e-02	8.366182e-04	5.495638e-04
36.1          	2.422255e-02	8.044891e-04	5.447543e-04
36.2          	2.326952e-02	8.150933e-04	5.416101e-04
36.3          	2.333997e-02	7.926159e-04	5.366645e-04
36.4          	2.267713e-02	8.032566e-04	5.346563e-04
36.5          	2.274976e-02	7.835079e-04	5.298557e-04
36.6          	2.214049e-02	7.939790e-04	5.282052e-04
36.7          	2.220078e-02	7.755505e-04	5.234793e-04
36.8          	2.240055e-02	7.859619e-04	5.224160e-04
36.9          	2.266898e-02	7.668747e-04	5.184877e-04
37            	2.212876e-02	7.806937e-04	5.168318e-04
37.1          	2.237502e-02	7.597082e-04	5.134022e-04
37.2          	2.184362e-02	7.736140e-04	5.113847e-04
37.3          	2.121129e-02	7.520007e-04	5.072502e-04
37.4          	2.037634e-02	7.639485e-04	5.055302e-04
37.5          	2.035540e-02	7.465446e-04	5.008714e-04
37.6          	1.980470e-02	7.564824e-04	4.996674e-04
37.7          	1.981870e-02	7.402007e-04	4.950083e-04
37.8          	1.931833e-02	7.493029e-04	4.939905e-04
37.9          	1.933400e-02	7.337570e-04	4.894228e-04
38            	1.886612e-02	7.423761e-04	4.885126e-04
38.1          	1.888064e-02	7.273611e-04	4.840185e-04
38.2          	1.843771e-02	7.356193e-04	4.831789e-04
38.3          	1.845208e-02	7.210257e-04	4.787535e-04
38.4          	1.802901e-02	7.289853e-04	4.779765e-04
38.5          	1.804273e-02	7.147568e-04	4.736017e-04
38.6          	1.763676e-02	7.224470e-04	4.729012e-04
38.7          	1.764933e-02	7.085537e-04	4.685683e-04
38.8          	1.725878e-02	7.159909e-04	4.679183e-04
38.9          	1.727084e-02	7.024163e-04	4.636338e-04
39            	1.689564e-02	7.096112e-04	4.630142e-04
39.1          	1.691048e-02	6.963501e-04	4.587875e-04
39.2          	1.655314e-02	7.033231e-04	4.581944e-04
39.3          	1.656962e-02	6.903518e-04	4.540243e-04
39.4          	1.623334e-02	6.970467e-04	4.534472e-04
39.5          	1.625024e-02	6.844686e-04	4.493299e-04
39.6          	1.592991e-02	6.908902e-04	4.487683e-04
39.7          	1.594489e-02	6.785892e-04	4.447090e-04
39.8          	1.563621e-02	6.847997e-04	4.441692e-04
39.9          	1.564833e-02	6.727410e-04	4.401818e-04
40            	1.534834e-02	6.787520e-04	4.396553e-04
40.1          	1.535799e-02	6.669299e-04	4.357253e-04
40.2          	1.507274e-02	6.727499e-04	4.352047e-04
40.3          	1.507318e-02	6.611612e-04	4.313356e-04
40.4          	1.479041e-02	6.667836e-04	4.308071e-04
40.5          	1.479312e-02	6.554189e-04	4.269994e-04
40.6          	1.504039e-02	6.609981e-04	4.266214e-04
40.7          	1.515085e-02	6.488868e-04	4.230043e-04
40.8          	1.491057e-02	6.567430e-04	4.224120e-04
40.9          	1.500596e-02	6.430734e-04	4.191646e-04
41            	1.476934e-02	6.510802e-04	4.183118e-04
41.1          	1.427778e-02	6.369667e-04	4.148568e-04
41.2          	1.382004e-02	6.436540e-04	4.141949e-04
41.3          	1.377072e-02	6.322917e-04	4.104708e-04
41.4          	1.348701e-02	6.375576e-04	4.099498e-04
41.5          	1.346551e-02	6.268900e-04	4.063377e-04
41.6          	1.320695e-02	6.316179e-04	4.057934e-04
41.7          	1.318574e-02	6.213916e-04	4.022984e-04
41.8          	1.340889e-02	6.259395e-04	4.018377e-04
41.9          	1.348208e-02	6.151592e-04	3.985436e-04
42            	1.327433e-02	6.217011e-04	3.978827e-04
42.1          	1.333181e-02	6.096001e-04	3.949504e-04
42.2          	1.313124e-02	6.162287e-04	3.940431e-04
42.3          	1.267624e-02	6.037814e-04	3.909615e-04
42.4          	1.227994e-02	6.091613e-04	3.902781e-04
42.5          	1.221413e-02	5.992325e-04	3.869566e-04
42.6          	1.197186e-02	6.033572e-04	3.863853e-04
42.7          	1.193590e-02	5.939984e-04	3.831553e-04
42.8          	1.171523e-02	5.976017e-04	3.825668e-04
42.9          	1.168030e-02	5.886880e-04	3.794466e-04
43            	1.188385e-02	5.921312e-04	3.789029e-04
43.1          	1.192957e-02	5.827017e-04	3.759227e-04
43.2          	1.175730e-02	5.879314e-04	3.752465e-04
43.3          	1.178506e-02	5.774037e-04	3.725962e-04
43.4          	1.162187e-02	5.826412e-04	3.716987e-04
43.5          	1.120135e-02	5.718823e-04	3.689425e-04
43.6          	1.086297e-02	5.759590e-04	3.682755e-04
43.7          	1.080360e-02	5.673156e-04	3.653167e-04
43.8          	1.043818e-02	5.714056e-04	3.657291e-04
43.9          	1.043999e-02	5.613525e-04	3.607359e-04
44            	9.957209e-03	5.650536e-04	3.620679e-04
44.1          	9.927446e-03	5.567729e-04	3.582730e-04
44.2          	9.604481e-03	5.595676e-04	3.578871e-04
44.3          	9.630123e-03	5.513878e-04	3.546809e-04
44.4          	9.322523e-03	5.543208e-04	3.542517e-04
44.5          	9.358831e-03	5.461346e-04	3.512445e-04
44.6          	9.066222e-03	5.489690e-04	3.508223e-04
44.7          	9.107242e-03	5.409527e-04	3.479065e-04
44.8          	8.825654e-03	5.436467e-04	3.474945e-04
44.9          	8.869084e-03	5.358192e-04	3.446415e-04
45            	8.595885e-03	5.383660e-04	3.442306e-04
45.1          	8.640349e-03	5.307262e-04	3.414356e-04
45.2          	8.374238e-03	5.331315e-04	3.410175e-04
45.3          	8.418503e-03	5.257023e-04	3.382759e-04
45.4          	8.139498e-03	5.273093e-04	3.376666e-04
45.5          	8.174753e-03	5.207422e-04	3.353778e-04
45.6          	7.936453e-03	5.224834e-04	3.346443e-04
45.7          	7.613683e-03	5.157617e-04	3.321574e-04
45.8          	6.948729e-03	5.178101e-04	3.304755e-04
45.9          	6.681949e-03	5.102300e-04	3.287899e-04
46            	5.747346e-03	5.118060e-04	3.265428e-04
46.1          	5.152722e-03	5.073124e-04	3.245483e-04
46.2          	4.513015e-03	5.052880e-04	3.222408e-04
46.3          	4.048871e-03	5.017656e-04	3.205223e-04
46.4          	3.570549e-03	4.995173e-04	3.183310e-04
46.5          	3.234273e-03	4.963014e-04	3.167584e-04
46.6          	2.860672e-03	4.936297e-04	3.148837e-04
46.7          	2.603200e-03	4.911241e-04	3.133552e-04
46.8          	2.315966e-03	4.883932e-04	3.115803e-04
46.9          	2.117272e-03	4.857631e-04	3.102470e-04
47            	1.906041e-03	4.833387e-04	3.084766e-04
47.1          	1.749567e-03	4.808037e-04	3.072584e-04
47.2          	1.582894e-03	4.783932e-04	3.055279e-04
47.3          	1.471632e-03	4.759409e-04	3.043768e-04
47.4          	1.340078e-03	4.735503e-04	3.027200e-04
47.5          	1.238009e-03	4.711747e-04	3.015780e-04
47.6          	1.124633e-03	4.688261e-04	2.999688e-04
47.7          	1.045998e-03	4.667314e-04	2.988170e-04
47.8          	9.680990e-04	4.644315e-04	2.972838e-04
47.9          	9.133670e-04	4.620797e-04	2.961827e-04
48            	8.500082e-04	4.598891e-04	2.947304e-04
48.1          	8.104023e-04	4.575625e-04	2.936289e-04
48.2          	7.604592e-04	4.553093e-04	2.922251e-04
48.3          	7.288540e-04	4.530480e-04	2.911272e-04
48.4          	6.907217e-04	4.508292e-04	2.897880e-04
48.5          	6.669408e-04	4.486081e-04	2.886862e-04
48.6          	6.377639e-04	4.464239e-04	2.873886e-04
48.7          	6.191158e-04	4.442313e-04	2.862880e-04
48.8          	5.972178e-04	4.420734e-04	2.850292e-04
48.9          	5.818345e-04	4.399037e-04	2.839345e-04
49            	5.659289e-04	4.377685e-04	2.827049e-04
49.1          	5.533723e-04	4.356194e-04	2.816129e-04
49.2          	5.437829e-04	4.335069e-04	2.804069e-04
49.3          	5.446201e-04	4.313858e-04	2.793170e-04
49.4          	5.366453e-04	4.293009e-04	2.781181e-04
49.5          	5.297829e-04	4.271981e-04	2.770478e-04
49.6          	5.093969e-04	4.251569e-04	2.759125e-04
49.7          	5.003154e-04	4.230957e-04	2.748346e-04
49.8          	4.959140e-04	4.210340e-04	2.736886e-04
49.9          	4.890616e-04	4.189481e-04	2.726160e-04
50            	4.860291e-04	4.168969e-04	2.714898e-04
50.1          	4.803804e-04	4.148348e-04	2.704246e-04
50.2          	4.782960e-04	4.128092e-04	2.693174e-04
50.3          	4.736039e-04	4.107743e-04	2.682624e-04
50.4          	4.722759e-04	4.087710e-04	2.671735e-04
50.5          	4.684350e-04	4.067593e-04	2.661254e-04
50.6          	4.678449e-04	4.047738e-04	2.650508e-04
50.7          	4.648932e-04	4.027806e-04	2.640105e-04
50.8          	4.651579e-04	4.008069e-04	2.629561e-04
50.9          	4.633884e-04	3.988242e-04	2.619330e-04
51            	4.650365e-04	3.968518e-04	2.608960e-04
51.1          	4.654694e-04	3.948632e-04	2.598780e-04
51.2          	4.704761e-04	3.928670e-04	2.588431e-04
51.3          	4.776662e-04	3.908292e-04	2.578153e-04
51.4          	4.981264e-04	3.887295e-04	2.567600e-04
51.5          	5.518244e-04	3.864581e-04	2.556842e-04
51.6          	4.940198e-04	3.837954e-04	2.544662e-04
51.7          	4.904249e-04	3.815631e-04	2.535665e-04
51.8          	5.382447e-04	3.802140e-04	2.527875e-04
51.9          	4.467637e-04	3.795794e-04	2.521432e-04
52            	4.419625e-04	3.789907e-04	2.512832e-04
52.1          	4.391488e-04	3.777292e-04	2.503770e-04
52.2          	4.367991e-04	3.763386e-04	2.494702e-04
52.3          	4.341512e-04	3.748984e-04	2.485681e-04
52.4          	4.322828e-04	3.734725e-04	2.476745e-04
52.5          	4.311057e-04	3.720728e-04	2.467923e-04
52.6          	4.303915e-04	3.707111e-04	2.459176e-04
52.7          	4.294322e-04	3.693899e-04	2.450553e-04
52.8          	4.288388e-04	3.681197e-04	2.442079e-04
52.9          	4.281828e-04	3.669070e-04	2.433768e-04
53            	4.278851e-04	3.657651e-04	2.425601e-04
53.1          	4.276711e-04	3.647080e-04	2.417616e-04
53.2          	4.280526e-04	3.637506e-04	2.409866e-04
53.3          	4.288328e-04	3.629193e-04	2.402362e-04
53.4          	4.303636e-04	3.622519e-04	2.395178e-04
53.5          	4.330855e-04	3.617971e-04	2.388535e-04
53.6          	4.374472e-04	3.615897e-04	2.382261e-04
53.7          	4.464280e-04	3.617471e-04	2.376732e-04
53.8          	4.618188e-04	3.624300e-04	2.372132e-04
53.9          	4.920223e-04	3.638357e-04	2.369000e-04
54            	4.786505e-04	3.665142e-04	2.368382e-04
54.1          	4.638608e-04	3.708618e-04	2.370090e-04
54.2          	4.248292e-04	3.741195e-04	2.367125e-04
54.3          	5.222360e-04	3.713445e-04	2.354590e-04
54.4          	5.083648e-04	3.665343e-04	2.338218e-04
54.5          	4.639621e-04	3.570228e-04	2.314299e-04
54.6          	4.438176e-04	3.474863e-04	2.293315e-04
54.7          	4.289349e-04	3.404734e-04	2.277613e-04
54.8          	4.200305e-04	3.352761e-04	2.264667e-04
54.9          	4.149171e-04	3.311514e-04	2.253117e-04
55            	4.121281e-04	3.276319e-04	2.242299e-04
55.1          	4.101658e-04	3.244691e-04	2.231916e-04
55.2          	4.084691e-04	3.215215e-04	2.221851e-04
55.3          	4.069248e-04	3.187457e-04	2.212069e-04