/*--------------------------------*- C++ -*----------------------------------*\
  =========                 |
  \\      /  F ield         | OpenFOAM: The Open Source CFD Toolbox
   \\    /   O peration     | Website:  https://openfoam.org
    \\  /    A nd           | Version:  12
     \\/     M anipulation  |
\*---------------------------------------------------------------------------*/
FoamFile
{
    format      ascii;
    class       volScalarField;
    location    "60";
    object      p;
}
// * * * * * * * * * * * * * * * * * * * * * * * * * * * * * * * * * * * * * //

dimensions      [0 2 -2 0 0 0 0];

internalField   nonuniform List<scalar> 
6750
(
0.000179092
0.000155937
0.000122445
-4.6833e-05
-0.00107874
0.00178723
0.00175341
0.00162881
0.00136394
0.0010072
0.00366551
0.00360739
0.00347799
0.00328094
0.00313234
0.0056245
0.0055293
0.00540466
0.00526492
0.00519212
0.0075633
0.00742165
0.00728547
0.00717284
0.00713746
0.00940125
0.0092087
0.00904992
0.00894623
0.00892729
0.0110895
0.0108449
0.0106597
0.0105579
0.0105464
0.0125988
0.012303
0.0120916
0.0119897
0.0119825
0.0139109
0.0135667
0.0133313
0.0132293
0.0132248
0.0150157
0.0146274
0.0143714
0.0142701
0.0142675
0.0159106
0.0154837
0.0152112
0.0151113
0.01511
0.016599
0.0161403
0.0158559
0.015758
0.0157572
0.0170911
0.0166068
0.0163159
0.0162201
0.0162193
0.0174015
0.0168977
0.0166068
0.0165121
0.0165103
0.0175438
0.0170341
0.0167487
0.0166514
0.0166472
0.0175439
0.0170342
0.0167488
0.0166514
0.0166473
0.0174018
0.0168979
0.0166071
0.0165124
0.0165105
0.0170915
0.0166072
0.0163163
0.0162205
0.0162197
0.0165996
0.0161408
0.0158564
0.0157586
0.0157578
0.0159113
0.0154845
0.0152119
0.0151121
0.0151107
0.0150166
0.0146283
0.0143723
0.014271
0.0142685
0.0139119
0.0135677
0.0133323
0.0132304
0.0132259
0.0126
0.0123042
0.0120929
0.011991
0.0119837
0.0110909
0.0108463
0.0106611
0.0105593
0.0105479
0.0094028
0.00921026
0.00905149
0.00894781
0.00892889
0.00756501
0.00742336
0.0072872
0.00717458
0.00713923
0.00562637
0.00553116
0.00540654
0.00526682
0.00519405
0.00366752
0.0036094
0.00348002
0.00328299
0.00313443
0.00178936
0.00175554
0.00163096
0.00136612
0.00100944
0.000181318
0.000158164
0.000124673
-4.45872e-05
-0.00107638
-0.00726053
-0.00664344
-0.00514548
-0.00403938
-0.00323922
-0.00260552
-0.00210994
-0.00173137
-0.00144075
-0.00125995
-0.00116429
-0.0011074
-0.00111277
-0.00117885
-0.0013048
-0.00149247
-0.00174302
-0.00205346
-0.00242319
-0.00285096
-0.00328922
-0.0037458
-0.00420831
-0.00465891
-0.00508301
-0.00547029
-0.00581109
-0.00608411
-0.00628173
-0.00657736
-0.00331611
-0.00251601
-0.00170768
-0.00130219
-0.00106886
-0.000921323
-0.000855892
-0.00084867
-0.000878291
-0.00100359
-0.00114955
-0.00127558
-0.00140638
-0.00153432
-0.00165986
-0.00179082
-0.00193871
-0.00211446
-0.0023276
-0.00257658
-0.00289398
-0.00325134
-0.00364365
-0.00406342
-0.00449957
-0.00494206
-0.00538343
-0.00580401
-0.00615247
-0.00649134
-0.000794046
-0.000606214
-0.000281796
-0.000120998
-3.66893e-05
-1.68795e-05
-7.08797e-05
-0.000176079
-0.000324515
-0.000592648
-0.00086225
-0.00113302
-0.00141693
-0.00170057
-0.00197808
-0.00224883
-0.00251556
-0.00278333
-0.00305803
-0.00334441
-0.00364483
-0.00395963
-0.00429031
-0.00463413
-0.00498619
-0.00534198
-0.00570167
-0.00605462
-0.00631983
-0.00647229
0.000686927
0.000474569
0.000618074
0.000712246
0.000734928
0.000685067
0.000561449
0.000384975
0.000146091
-0.000220467
-0.000587002
-0.000981175
-0.00140184
-0.00183222
-0.002261
-0.00267968
-0.00308226
-0.00346568
-0.00382941
-0.00417462
-0.00450049
-0.00481035
-0.00510814
-0.00539592
-0.00567439
-0.00594444
-0.00621328
-0.00647839
-0.00663024
-0.0065284
0.00181331
0.00146303
0.00152853
0.00155509
0.00149812
0.00136519
0.00116169
0.000903765
0.000557607
9.70605e-05
-0.000370865
-0.000882387
-0.00142685
-0.00198511
-0.00254179
-0.00308301
-0.0035971
-0.00407562
-0.0045136
-0.00490931
-0.00526298
-0.00557772
-0.00585855
-0.00611071
-0.00633868
-0.00654733
-0.00674979
-0.00695085
-0.00701237
-0.00665443
0.00279614
0.00241775
0.00242202
0.00237068
0.00223039
0.0020137
0.00172976
0.00138656
0.000925666
0.000376534
-0.000196012
-0.000821188
-0.00148184
-0.0021571
-0.00282823
-0.00347741
-0.00408904
-0.00465108
-0.00515569
-0.00559934
-0.00598223
-0.00630776
-0.00658193
-0.00681196
-0.00700477
-0.00716803
-0.00731991
-0.00747144
-0.00745759
-0.00685543
0.00367074
0.00330936
0.00325854
0.00313221
0.00291474
0.00261956
0.00226069
0.00182928
0.00125747
0.000624776
-5.196e-05
-0.000786331
-0.0015572
-0.0023423
-0.00312007
-0.00386949
-0.00457188
-0.0052125
-0.00578139
-0.00627362
-0.00668893
-0.007031
-0.00730663
-0.00752437
-0.00769283
-0.00782176
-0.0079337
-0.0080445
-0.00796365
-0.00713424
0.00445807
0.00414261
0.00404399
0.0038476
0.00355834
0.00319035
0.00275526
0.00222933
0.00156073
0.000843117
6.43966e-05
-0.000774574
-0.00165044
-0.00253954
-0.0034178
-0.00426158
-0.00504973
-0.00576537
-0.00639686
-0.0069382
-0.00738865
-0.00775205
-0.00803574
-0.00824923
-0.00840232
-0.00850641
-0.00858794
-0.00866602
-0.00852532
-0.00749032
0.00518027
0.00493077
0.00479023
0.00452662
0.00416814
0.00372976
0.00321724
0.00259283
0.00183918
0.00103365
0.000155627
-0.000784003
-0.00176059
-0.0027489
-0.00372266
-0.00465602
-0.00552587
-0.00631358
-0.00700622
-0.00759693
-0.0080846
-0.00847311
-0.00877023
-0.00898614
-0.00913147
-0.00921903
-0.00927877
-0.00933157
-0.00913753
-0.00792122
0.00585431
0.00568346
0.00550507
0.0051751
0.00474771
0.00424032
0.0036507
0.00292751
0.00209626
0.00120009
0.000224746
-0.000812607
-0.00188661
-0.00297047
-0.00403595
-0.00505536
-0.00600391
-0.00686161
-0.00761447
-0.00825494
-0.00878161
-0.00919841
-0.0095134
-0.00973726
-0.00988125
-0.00995937
-0.0100048
-0.0100389
-0.00979706
-0.00842399
0.00649236
0.00640803
0.00619475
0.00579836
0.00530245
0.00472933
0.00405947
0.00323972
0.0023328
0.00134511
0.00027433
-0.000858582
-0.00202761
-0.00320441
-0.00435899
-0.00546206
-0.00648741
-0.00741389
-0.00822664
-0.00891757
-0.00948501
-0.00993292
-0.0102696
-0.0105061
-0.0106542
-0.0107289
-0.0107666
-0.0107875
-0.0105027
-0.00899623
0.00710463
0.00711171
0.00686632
0.00640428
0.00584215
0.00519982
0.00444206
0.00353736
0.00255071
0.00147153
0.000306805
-0.00092033
-0.00218292
-0.00345106
-0.00469319
-0.00587857
-0.00697978
-0.00797466
-0.00884761
-0.00959007
-0.0102002
-0.0106819
-0.0110437
-0.011297
-0.0114539
-0.0115305
-0.0115659
-0.0115786
-0.0112549
-0.00963657
0.00770066
0.00780128
0.0075262
0.0069985
0.00637045
0.00565612
0.00480607
0.00382469
0.00275397
0.00158274
0.00032451
-0.000996452
-0.00235207
-0.00371095
-0.00504008
-0.00630745
-0.0074845
-0.00854819
-0.00948229
-0.0102778
-0.0109327
-0.0114509
-0.0118412
-0.0121151
-0.012285
-0.0123682
-0.0124064
-0.0124149
-0.0120561
-0.0103452
0.0082888
0.00848365
0.00818102
0.00758751
0.00689415
0.00610348
0.0051603
0.00410455
0.00294609
0.00168184
0.00032954
-0.00108577
-0.00253485
-0.00398486
-0.00540147
-0.00675145
-0.00800524
-0.00913899
-0.0101358
-0.0109865
-0.0116886
-0.0122462
-0.0126682
-0.0129663
-0.0131533
-0.0132474
-0.013293
-0.0133011
-0.0129105
-0.0111239
0.00887575
0.00916962
0.00884204
0.00818329
0.00741762
0.00654258
0.00551516
0.00438016
0.00313056
0.00177175
0.000323863
-0.00118732
-0.0027313
-0.00427388
-0.00577946
-0.00721369
-0.00854606
-0.00975193
-0.0108139
-0.0117223
-0.0124746
-0.0130748
-0.013532
-0.013858
-0.0140658
-0.0141751
-0.0142322
-0.0142434
-0.0138241
-0.0119768
0.00946904
0.0098698
0.00951952
0.00879297
0.00795004
0.00698329
0.00587677
0.0046554
0.00331121
0.00185541
0.000309329
-0.00130033
-0.00294176
-0.00457946
-0.00617661
-0.00769779
-0.00911156
-0.0103925
-0.0115228
-0.0124922
-0.0132982
-0.0139447
-0.0144409
-0.0147986
-0.0150313
-0.0151598
-0.0152326
-0.0152502
-0.0148052
-0.01291
0.0100785
0.0105978
0.0102254
0.00942759
0.00849919
0.00743631
0.00624944
0.00493527
0.00349241
0.00193583
0.000287662
-0.00142432
-0.00316701
-0.00490362
-0.00659613
-0.00820809
-0.00970714
-0.0110672
-0.0122698
-0.0133044
-0.0141682
-0.0148652
-0.0154045
-0.0157983
-0.0160601
-0.0162122
-0.016305
-0.0163322
-0.0158647
-0.0139325
0.0107266
0.011363
0.0109733
0.0100951
0.00906781
0.00791404
0.00663891
0.00522535
0.00367865
0.00201602
0.000260414
-0.0015592
-0.00340837
-0.00524906
-0.00704207
-0.00874991
-0.0103393
-0.0117835
-0.0130635
-0.0141683
-0.015095
-0.0158474
-0.0164348
-0.0168693
-0.0171649
-0.0173453
-0.0174625
-0.0175029
-0.017016
-0.0150565
0.0114315
0.012178
0.0117736
0.0108065
0.00966949
0.00842652
0.00705284
0.00553233
0.00387489
0.00209907
0.000228893
-0.00170537
-0.00366795
-0.0056195
-0.00751968
-0.00932994
-0.0110162
-0.0125508
-0.0139144
-0.0150955
-0.016091
-0.0169047
-0.0175458
-0.0180266
-0.0183612
-0.0185751
-0.0187217
-0.0187794
-0.0182767
-0.016298
0.0122103
0.0130698
0.0126436
0.0115711
0.0103265
0.00898507
0.00750119
0.00586405
0.00408646
0.00218804
0.000193986
-0.00186406
-0.00394896
-0.00602007
-0.00803588
-0.0099568
-0.0117479
-0.0133808
-0.0148354
-0.0161002
-0.0171717
-0.0180536
-0.018755
-0.0192885
-0.0196684
-0.0199219
-0.0201036
-0.0201832
-0.0196688
-0.0176783
0.0130951
0.0140534
0.013599
0.0124158
0.0110601
0.00960221
0.00799465
0.00622891
0.00431901
0.0022858
0.000155878
-0.00203766
-0.00425624
-0.00645791
-0.00859998
-0.0106418
-0.0125475
-0.0142882
-0.0158432
-0.0172005
-0.0183565
-0.0193148
-0.0200845
-0.0206782
-0.0211108
-0.0214111
-0.0216346
-0.0217417
-0.0212205
-0.019225
0.014121
0.0151671
0.0146688
0.013369
0.0118869
0.0102944
0.00854701
0.00663684
0.00457869
0.00239488
0.000113648
-0.00223035
-0.00459706
-0.00694315
-0.00922472
-0.0114001
-0.0134326
-0.0152927
-0.0169592
-0.0184197
-0.0196704
-0.020715
-0.0215626
-0.0222257
-0.0227197
-0.0230752
-0.0233488
-0.0234905
-0.0229688
-0.020975
0.0153364
0.0164515
0.0158964
0.0144679
0.0128332
0.0110835
0.00917527
0.00709953
0.00487207
0.00251705
6.45253e-05
-0.00244915
-0.00498235
-0.00749031
-0.00992794
-0.0122526
-0.0144268
-0.0164204
-0.0182119
-0.0197886
-0.0211466
-0.0222894
-0.0232263
-0.0239698
-0.024536
-0.0249572
-0.0252907
-0.0254762
-0.0249621
-0.0229776
0.0168101
0.0179681
0.0173397
0.015753
0.0139344
0.0119981
0.00990037
0.00763058
0.00520585
0.00265248
2.59296e-06
-0.0027056
-0.00542877
-0.00812074
-0.0107352
-0.0132286
-0.015563
-0.0177076
-0.0196407
-0.0213494
-0.0228298
-0.0240855
-0.0251258
-0.0259633
-0.0266148
-0.0271146
-0.0275203
-0.0277612
-0.0272661
-0.0253009
0.0186576
0.0198122
0.0190697
0.0172814
0.0152382
0.0130755
0.0107487
0.008246
0.00558628
0.00279832
-8.34248e-05
-0.00301866
-0.00596224
-0.00886655
-0.0116842
-0.014371
-0.0168885
-0.0192059
-0.0213011
-0.0231616
-0.0247833
-0.0261699
-0.027331
-0.0282795
-0.0290326
-0.0296268
-0.0301203
-0.0304319
-0.0299718
-0.0280412
0.0209979
0.0221059
0.0211889
0.0191385
0.0168126
0.0143667
0.011755
0.00896528
0.00601846
0.00294629
-0.000214011
-0.00341978
-0.00662399
-0.00977764
-0.0128326
-0.0157442
-0.0184741
-0.0209916
-0.0232752
-0.0253122
-0.027099
-0.0286395
-0.0299435
-0.0310239
-0.0318992
-0.0326075
-0.0332077
-0.0336097
-0.0332082
-0.0313372
0.0240968
0.025043
0.0238516
0.0214515
0.0187584
0.0159455
0.0129672
0.00981173
0.006503
0.00307648
-0.000427335
-0.00396314
-0.00748206
-0.0109341
-0.0142709
-0.0174484
-0.0204288
-0.0231825
-0.0256887
-0.0279355
-0.0299195
-0.0316449
-0.0331216
-0.0343629
-0.0353876
-0.0362357
-0.0369663
-0.0374838
-0.037177
-0.0354102
0.0283312
0.0289072
0.0272686
0.0243843
0.0212007
0.0178995
0.0144368
0.0108032
0.00702695
0.00314813
-0.00078873
-0.00473536
-0.00864125
-0.0124561
-0.0161324
-0.0196278
-0.0229069
-0.025942
-0.0287139
-0.0312123
-0.0334353
-0.0353868
-0.0370766
-0.0385182
-0.0397309
-0.0407552
-0.041649
-0.042318
-0.0421681
-0.0405947
0.034566
0.0344018
0.0320299
0.0284585
0.024583
0.020574
0.0163999
0.0120649
0.00760852
0.00308031
-0.00146824
-0.00598465
-0.0104171
-0.0147166
-0.0188388
-0.0227457
-0.0264065
-0.0297976
-0.0329018
-0.0357094
-0.0382348
-0.0404698
-0.0424226
-0.044107
-0.0455419
-0.0467643
-0.0478279
-0.0486541
-0.0487277
-0.0475168
0.0453971
0.0435672
0.0396652
0.0348868
0.0298699
0.0247091
0.0194002
0.0139772
0.00849641
0.00301653
-0.00240662
-0.00772137
-0.0128812
-0.0178459
-0.022582
-0.0270627
-0.0312674
-0.0351821
-0.0387995
-0.0421157
-0.0451094
-0.0477998
-0.0501939
-0.0522972
-0.0541206
-0.0556888
-0.0570458
-0.0581786
-0.0587837
-0.0582816
-0.00358245
-0.00259498
-0.000791848
0.000642781
0.00184853
0.00297265
0.00404834
0.00508385
0.00608862
0.00707188
0.0080417
0.00900599
0.009973
0.010951
0.0119491
0.0129779
0.0140511
0.0151855
0.0163994
0.0177136
0.0191594
0.0207728
0.0226023
0.0247142
0.0271961
0.0301858
0.0338663
0.0384485
0.0441598
0.051527
0.000856298
0.00187668
0.00304419
0.00401731
0.00488595
0.00571331
0.00651134
0.00728454
0.00804042
0.00878725
0.00953303
0.0102858
0.0110538
0.0118458
0.0126716
0.0135428
0.0144734
0.0154804
0.0165833
0.017807
0.0191847
0.0207583
0.0225847
0.0247418
0.0273386
0.0305383
0.0345724
0.0397601
0.046585
0.055631
0.00324575
0.00415151
0.00502807
0.00580995
0.0065679
0.00731915
0.00806055
0.00879308
0.00952169
0.0102522
0.0109908
0.011744
0.0125191
0.0133244
0.0141693
0.0150655
0.016027
0.017071
0.0182186
0.0194967
0.0209408
0.0225973
0.0245289
0.0268226
0.0296015
0.0330439
0.037413
0.0430833
0.0506989
0.0609407
0.00532824
0.00611975
0.00687621
0.00757446
0.00826495
0.00895795
0.00965247
0.0103513
0.0110594
0.0117823
0.0125256
0.0132957
0.0140995
0.0149452
0.0158423
0.0168026
0.0178404
0.0189734
0.0202238
0.0216201
0.0231997
0.0250119
0.0271237
0.0296275
0.0326536
0.0363898
0.0411133
0.0472147
0.0554264
0.0664724
0.00726903
0.00796298
0.00862536
0.00924853
0.00987525
0.0105158
0.0111708
0.011843
0.0125366
0.0132564
0.0140075
0.0147959
0.0156285
0.0165134
0.0174605
0.0184818
0.0195923
0.0208104
0.0221596
0.0236699
0.0253809
0.0273444
0.029631
0.0323373
0.0355993
0.0396117
0.0446614
0.0511491
0.0598891
0.0716605
0.00903895
0.00964627
0.0102285
0.0107884
0.0113644
0.0119656
0.0125924
0.013247
0.0139331
0.0146548
0.0154169
0.0162252
0.0170864
0.0180086
0.019002
0.0200789
0.0212545
0.0225483
0.0239845
0.0255948
0.0274202
0.029515
0.0319525
0.0348332
0.0382974
0.0425464
0.047876
0.0546997
0.0639111
0.0763703
0.0106353
0.0111652
0.0116794
0.0121875
0.0127236
0.0132949
0.0139015
0.014545
0.0152286
0.0159561
0.0167319
0.0175615
0.0184515
0.0194101
0.0204474
0.021576
0.0228116
0.0241741
0.0256886
0.0273879
0.0293142
0.0315239
0.0340923
0.0371229
0.0407599
0.0452098
0.0507771
0.0578882
0.0675016
0.080572
0.0120537
0.0125141
0.01297
0.0134357
0.0139402
0.0144887
0.0150808
0.0157179
0.0164025
0.0171381
0.0179288
0.0187797
0.0196975
0.0206901
0.0217679
0.0229437
0.0242333
0.0256573
0.0272414
0.029019
0.0310339
0.0333434
0.0360249
0.0391841
0.0429684
0.0475884
0.0533564
0.0607102
0.0706528
0.084241
0.0132862
0.0136843
0.0140907
0.0145221
0.0150019
0.0155333
0.0161154
0.0167493
0.0174371
0.0181817
0.018987
0.019858
0.020801
0.0218243
0.0229381
0.0241552
0.025492
0.0269693
0.0286133
0.0304583
0.0325486
0.0349429
0.0377199
0.0409871
0.0448944
0.049656
0.0555904
0.0631455
0.0733481
0.0873634
0.0143261
0.0146697
0.0150351
0.0154393
0.0159002
0.016419
0.0169945
0.0176273
0.0183192
0.0190727
0.0198915
0.0207803
0.0217454
0.0227951
0.0239395
0.0251917
0.0265683
0.0280902
0.0297842
0.031685
0.0338377
0.0363018
0.0391571
0.0425124
0.0465198
0.0513962
0.0574651
0.0651829
0.075583
0.0899442
0.0151711
0.0154685
0.0158011
0.0161846
0.0166313
0.017141
0.0177122
0.0183452
0.0190413
0.0198029
0.0206332
0.0215371
0.0225207
0.0235921
0.0247616
0.0260424
0.0274511
0.029009
0.0307431
0.0326886
0.0348911
0.0374106
0.0403278
0.0437528
0.0478389
0.0528052
0.0589794
0.0668246
0.0773675
0.092004
0.0158238
0.0160841
0.0163917
0.0167599
0.0171964
0.0176998
0.0182684
0.0189021
0.019602
0.0203702
0.02121
0.0221258
0.0231239
0.0242122
0.0254012
0.0267041
0.0281376
0.0297231
0.031488
0.0334676
0.0357078
0.0382694
0.0412336
0.0447111
0.0488565
0.0538902
0.0601433
0.0680844
0.0787235
0.093575
0.0162919
0.0165246
0.0168144
0.0171722
0.0176018
0.018101
0.018668
0.0193026
0.0200056
0.0207789
0.0216255
0.0225501
0.0235587
0.0246594
0.0258625
0.0271812
0.0286324
0.0302377
0.0320245
0.0340284
0.0362956
0.038887
0.0418844
0.045399
0.0495862
0.0546674
0.0609758
0.0689846
0.0796812
0.0946964
0.0165875
0.0168023
0.017081
0.0174324
0.0178579
0.0183546
0.0189208
0.0195561
0.0202612
0.0210378
0.0218891
0.0228193
0.0238347
0.0249433
0.0261553
0.0274842
0.0289468
0.0305646
0.0323653
0.0343846
0.0366688
0.0392791
0.0422974
0.0458355
0.050049
0.0551598
0.061503
0.0695543
0.0802776
0.0954118
0.0167265
0.0169325
0.017206
0.0175544
0.017978
0.0184737
0.0190396
0.0196753
0.0203815
0.0211598
0.0220132
0.0229463
0.023965
0.0250773
0.0262937
0.0276274
0.0290954
0.0307193
0.0325267
0.0345533
0.0368457
0.039465
0.0424934
0.0460425
0.0502686
0.0553935
0.0617533
0.0698246
0.0805542
0.0957579
0.0167265
0.0169326
0.017206
0.0175545
0.0179781
0.0184737
0.0190397
0.0196754
0.0203816
0.0211598
0.0220133
0.0229463
0.023965
0.0250774
0.0262938
0.0276275
0.0290955
0.0307193
0.0325268
0.0345534
0.0368457
0.0394651
0.0424934
0.0460426
0.0502687
0.0553936
0.0617534
0.0698247
0.0805542
0.095758
0.0165878
0.0168025
0.0170812
0.0174327
0.0178581
0.0183548
0.0189211
0.0195563
0.0202614
0.021038
0.0218893
0.0228195
0.0238349
0.0249435
0.0261555
0.0274844
0.0289469
0.0305648
0.0323655
0.0343848
0.036669
0.0392793
0.0422976
0.0458356
0.0500492
0.05516
0.0615032
0.0695545
0.0802778
0.095412
0.0162923
0.016525
0.0168148
0.0171726
0.0176022
0.0181014
0.0186684
0.019303
0.0200059
0.0207792
0.0216259
0.0225504
0.023559
0.0246597
0.0258628
0.0271815
0.0286327
0.030238
0.0320248
0.0340287
0.0362959
0.0388873
0.0418847
0.0453993
0.0495865
0.0546677
0.0609761
0.0689849
0.0796816
0.0946969
0.0158244
0.0160847
0.0163922
0.0167605
0.017197
0.0177003
0.0182689
0.0189026
0.0196025
0.0203707
0.0212104
0.0221262
0.0231243
0.0242126
0.0254017
0.0267045
0.028138
0.0297235
0.0314884
0.033468
0.0357082
0.0382698
0.041234
0.0447115
0.0488569
0.0538907
0.0601437
0.0680849
0.0787241
0.0935757
0.0151719
0.0154693
0.0158018
0.0161853
0.0166319
0.0171416
0.0177128
0.0183458
0.0190419
0.0198035
0.0206338
0.0215377
0.0225212
0.0235926
0.0247621
0.0260429
0.0274516
0.0290095
0.0307437
0.0326892
0.0348916
0.0374111
0.0403284
0.0437533
0.0478395
0.0528058
0.05898
0.0668253
0.0773683
0.0920049
0.0143271
0.0146706
0.015036
0.0154402
0.015901
0.0164197
0.0169953
0.0176281
0.0183199
0.0190734
0.0198922
0.020781
0.0217461
0.0227958
0.0239402
0.0251924
0.026569
0.0280908
0.0297849
0.0316857
0.0338384
0.0363024
0.0391577
0.0425131
0.0465205
0.0513969
0.0574659
0.0651837
0.0755839
0.0899453
0.0132873
0.0136854
0.0140917
0.0145231
0.0150028
0.0155342
0.0161164
0.0167502
0.017438
0.0181826
0.0189879
0.0198588
0.0208019
0.0218251
0.0229389
0.024156
0.0254928
0.02697
0.0286141
0.0304591
0.0325494
0.0349437
0.0377207
0.0409879
0.0448952
0.0496569
0.0555914
0.0631465
0.0733493
0.0873648
0.012055
0.0125153
0.0129712
0.0134368
0.0139413
0.0144898
0.0150818
0.0157189
0.0164035
0.0171391
0.0179297
0.0187807
0.0196984
0.0206911
0.0217689
0.0229446
0.0242342
0.0256582
0.0272423
0.02902
0.0310348
0.0333443
0.0360259
0.039185
0.0429694
0.0475895
0.0533575
0.0607114
0.0706541
0.0842426
0.0106367
0.0111666
0.0116807
0.0121888
0.0127249
0.0132961
0.0139026
0.0145461
0.0152297
0.0159572
0.016733
0.0175626
0.0184526
0.0194112
0.0204485
0.0215771
0.0228127
0.0241751
0.0256897
0.0273889
0.0293153
0.031525
0.0340934
0.037124
0.0407611
0.045211
0.0507784
0.0578896
0.0675031
0.0805738
0.00904054
0.00964779
0.01023
0.0107898
0.0113658
0.011967
0.0125937
0.0132483
0.0139343
0.014656
0.0154181
0.0162264
0.0170875
0.0180098
0.0190032
0.02008
0.0212557
0.0225494
0.0239857
0.025596
0.0274214
0.0295162
0.0319538
0.0348344
0.0382987
0.0425477
0.0478775
0.0547012
0.0639128
0.0763723
0.00727078
0.00796466
0.00862698
0.0092501
0.00987677
0.0105173
0.0111722
0.0118444
0.012538
0.0132578
0.0140089
0.0147972
0.0156298
0.0165147
0.0174617
0.0184831
0.0195936
0.0208117
0.0221609
0.0236712
0.0253822
0.0273458
0.0296323
0.0323387
0.0356007
0.0396132
0.044663
0.0511508
0.0598909
0.0716627
0.00533015
0.00612158
0.00687797
0.00757616
0.0082666
0.00895955
0.00965403
0.0103528
0.0110609
0.0117837
0.0125271
0.0132971
0.0141009
0.0149466
0.0158437
0.016804
0.0178418
0.0189748
0.0202252
0.0216216
0.0232012
0.0250134
0.0271252
0.029629
0.0326552
0.0363914
0.0411151
0.0472165
0.0554284
0.0664747
0.00324782
0.0041535
0.00502997
0.00581179
0.00656968
0.00732087
0.00806223
0.00879472
0.00952329
0.0102538
0.0109923
0.0117455
0.0125206
0.0133259
0.0141708
0.015067
0.0160285
0.0170725
0.0182201
0.0194983
0.0209424
0.0225989
0.0245305
0.0268243
0.0296032
0.0330457
0.0374149
0.0430853
0.0507011
0.0609433
0.000858559
0.00187883
0.00304623
0.00401928
0.00488785
0.00571515
0.00651314
0.0072863
0.00804215
0.00878894
0.00953471
0.0102874
0.0110554
0.0118475
0.0126733
0.0135444
0.014475
0.015482
0.016585
0.0178087
0.0191864
0.02076
0.0225864
0.0247436
0.0273404
0.0305402
0.0345744
0.0397622
0.0465872
0.0556336
-0.00357984
-0.00259246
-0.000789481
0.000645047
0.00185072
0.00297478
0.00405041
0.00508587
0.0060906
0.00707381
0.00804359
0.00900785
0.00997482
0.0109528
0.0119508
0.0129797
0.0140528
0.0151873
0.0164012
0.0177153
0.0191612
0.0207746
0.0226041
0.0247159
0.027198
0.0301877
0.0338682
0.0384507
0.0441621
0.0515297
0.0454002
0.0435704
0.0396687
0.0348906
0.0298741
0.0247136
0.0194051
0.0139825
0.00850195
0.00302232
-0.00240062
-0.00771521
-0.012875
-0.0178397
-0.0225758
-0.0270565
-0.0312615
-0.0351764
-0.0387941
-0.0421106
-0.0451047
-0.0477955
-0.0501899
-0.0522937
-0.0541174
-0.055686
-0.0570434
-0.0581765
-0.0587816
-0.0582795
0.0345686
0.0344046
0.0320328
0.0284617
0.0245864
0.0205777
0.0164038
0.012069
0.00761287
0.00308486
-0.00146352
-0.0059798
-0.0104122
-0.0147116
-0.0188338
-0.0227408
-0.0264017
-0.029793
-0.0328974
-0.0357052
-0.0382308
-0.0404661
-0.0424192
-0.0441039
-0.045539
-0.0467617
-0.0478255
-0.048652
-0.0487256
-0.0475143
0.0283336
0.0289097
0.0272711
0.024387
0.0212035
0.0179025
0.01444
0.0108065
0.00703044
0.00315175
-0.000784981
-0.00473152
-0.00863735
-0.0124522
-0.0161285
-0.019624
-0.0229031
-0.0259383
-0.0287104
-0.0312089
-0.0334321
-0.0353837
-0.0370737
-0.0385155
-0.0397284
-0.0407528
-0.0416468
-0.042316
-0.0421658
-0.0405921
0.0240991
0.0250452
0.0238538
0.0214538
0.0187608
0.015948
0.0129699
0.00981449
0.00650588
0.00307946
-0.000424269
-0.00396001
-0.00747889
-0.0109309
-0.0142677
-0.0174453
-0.0204258
-0.0231796
-0.0256858
-0.0279327
-0.0299168
-0.0316424
-0.0331192
-0.0343606
-0.0353853
-0.0362336
-0.0369643
-0.0374819
-0.0371749
-0.0354076
0.021
0.0221079
0.0211909
0.0191405
0.0168147
0.0143689
0.0117573
0.00896763
0.00602088
0.00294878
-0.000211461
-0.00341719
-0.00662137
-0.00977502
-0.01283
-0.0157416
-0.0184716
-0.0209892
-0.0232728
-0.0253099
-0.0270968
-0.0286374
-0.0299414
-0.0310219
-0.0318972
-0.0326056
-0.0332058
-0.0336078
-0.0332061
-0.0313347
0.0186596
0.0198141
0.0190716
0.0172833
0.0152401
0.0130775
0.0107507
0.00824804
0.00558836
0.00280045
-8.12643e-05
-0.00301647
-0.00596005
-0.00886437
-0.0116821
-0.0143689
-0.0168864
-0.0192038
-0.0212991
-0.0231597
-0.0247814
-0.0261681
-0.0273292
-0.0282777
-0.0290308
-0.029625
-0.0301184
-0.0304301
-0.0299697
-0.0280387
0.016812
0.01797
0.0173414
0.0157548
0.0139361
0.0119999
0.00990216
0.00763239
0.00520768
0.00265434
4.45965e-06
-0.00270373
-0.00542691
-0.00811888
-0.0107334
-0.0132269
-0.0155612
-0.0177059
-0.019639
-0.0213478
-0.0228282
-0.0240839
-0.0251242
-0.0259617
-0.0266132
-0.0271129
-0.0275185
-0.0277594
-0.027264
-0.0252986
0.0153383
0.0164533
0.0158982
0.0144696
0.0128349
0.0110851
0.00917693
0.00710119
0.00487373
0.00251871
6.6174e-05
-0.00244752
-0.00498072
-0.00748872
-0.00992637
-0.0122511
-0.0144253
-0.016419
-0.0182104
-0.0197872
-0.0211451
-0.0222879
-0.0232248
-0.0239683
-0.0245345
-0.0249556
-0.0252889
-0.0254744
-0.0249601
-0.0229754
0.0141229
0.0151689
0.0146705
0.0133707
0.0118886
0.010296
0.00854859
0.00663839
0.00458022
0.00239639
0.00011514
-0.00222888
-0.00459562
-0.00694174
-0.00922334
-0.0113988
-0.0134313
-0.0152914
-0.0169579
-0.0184184
-0.0196691
-0.0207137
-0.0215612
-0.0222243
-0.0227182
-0.0230737
-0.0233471
-0.0234887
-0.0229668
-0.0209729
0.0130969
0.0140552
0.0136007
0.0124175
0.0110617
0.00960379
0.00799618
0.0062304
0.00432047
0.00228722
0.000157263
-0.00203631
-0.00425492
-0.00645664
-0.00859874
-0.0106406
-0.0125464
-0.0142871
-0.0158421
-0.0171994
-0.0183553
-0.0193135
-0.0200832
-0.0206769
-0.0211094
-0.0214095
-0.021633
-0.0217399
-0.0212186
-0.019223
0.0122121
0.0130716
0.0126454
0.0115728
0.0103281
0.00898665
0.00750271
0.00586552
0.00408787
0.0021894
0.000195307
-0.00186279
-0.00394772
-0.00601888
-0.00803473
-0.00995569
-0.0117468
-0.0133797
-0.0148344
-0.0160991
-0.0171706
-0.0180524
-0.0187538
-0.0192871
-0.019667
-0.0199204
-0.020102
-0.0201814
-0.0196669
-0.0176764
0.0114333
0.0121798
0.0117754
0.0108082
0.00967114
0.00842812
0.00705437
0.0055338
0.00387629
0.00210041
0.000230185
-0.00170414
-0.00366676
-0.00561836
-0.00751858
-0.00932888
-0.0110151
-0.0125498
-0.0139133
-0.0150944
-0.0160899
-0.0169035
-0.0175445
-0.0180252
-0.0183598
-0.0185736
-0.0187201
-0.0187776
-0.0182748
-0.0162962
0.0107284
0.0113648
0.0109751
0.0100969
0.0090695
0.00791567
0.00664047
0.00522684
0.00368007
0.00201737
0.000261707
-0.00155796
-0.0034072
-0.00524793
-0.00704099
-0.00874887
-0.0103383
-0.0117825
-0.0130624
-0.0141672
-0.0150939
-0.0158463
-0.0164335
-0.016868
-0.0171634
-0.0173437
-0.0174608
-0.0175011
-0.0170141
-0.0150547
0.0100803
0.0105996
0.0102272
0.00942939
0.00850092
0.00743797
0.00625104
0.0049368
0.00349386
0.00193721
0.000288981
-0.00142307
-0.00316582
-0.00490248
-0.00659504
-0.00820704
-0.00970611
-0.0110662
-0.0122687
-0.0133033
-0.0141671
-0.014864
-0.0154033
-0.015797
-0.0160586
-0.0162106
-0.0163032
-0.0163304
-0.0158627
-0.0139308
0.00947082
0.00987166
0.00952139
0.0087948
0.00795183
0.00698499
0.00587842
0.00465698
0.00331272
0.00185685
0.000310693
-0.00129903
-0.00294053
-0.00457828
-0.00617548
-0.0076967
-0.00911049
-0.0103915
-0.0115217
-0.0124911
-0.013297
-0.0139435
-0.0144395
-0.0147972
-0.0150298
-0.0151582
-0.0152309
-0.0152483
-0.0148033
-0.0129083
0.00887755
0.0091715
0.00884394
0.00818516
0.00741945
0.00654433
0.00551685
0.0043818
0.00313212
0.00177324
0.000325286
-0.00118596
-0.00273
-0.00427264
-0.00577827
-0.00721253
-0.00854492
-0.0097508
-0.0108128
-0.0117211
-0.0124733
-0.0130735
-0.0135306
-0.0138565
-0.0140642
-0.0141734
-0.0142304
-0.0142415
-0.0138221
-0.0119751
0.00829061
0.00848555
0.00818294
0.00758941
0.00689602
0.00610529
0.00516204
0.00410625
0.00294772
0.0016834
0.000331032
-0.00108435
-0.00253348
-0.00398355
-0.0054002
-0.00675021
-0.00800402
-0.00913777
-0.0101346
-0.0109852
-0.0116873
-0.0122448
-0.0126667
-0.0129648
-0.0131516
-0.0132457
-0.0132911
-0.0132991
-0.0129084
-0.0111222
0.0077025
0.00780321
0.00752815
0.00700044
0.00637235
0.00565798
0.00480786
0.00382645
0.00275567
0.00158437
0.000326077
-0.000994945
-0.00235062
-0.00370955
-0.00503872
-0.00630611
-0.00748318
-0.00854687
-0.00948095
-0.0102764
-0.0109313
-0.0114494
-0.0118396
-0.0121134
-0.0122832
-0.0123664
-0.0124045
-0.0124129
-0.012054
-0.0103434
0.00710649
0.00711366
0.0068683
0.00640626
0.0058441
0.00520174
0.00444391
0.00353917
0.00255248
0.00147323
0.000308453
-0.000918738
-0.00218138
-0.00344956
-0.00469172
-0.00587713
-0.00697835
-0.00797323
-0.00884616
-0.00958858
-0.0101986
-0.0106803
-0.011042
-0.0112953
-0.011452
-0.0115286
-0.0115639
-0.0115764
-0.0112528
-0.0096348
0.00649426
0.00641001
0.00619676
0.00580037
0.00530444
0.0047313
0.00406138
0.00324157
0.00233464
0.0013469
0.000276059
-0.000856902
-0.00202598
-0.00320281
-0.00435742
-0.00546051
-0.00648586
-0.00741234
-0.00822507
-0.00891596
-0.00948336
-0.0099312
-0.0102678
-0.0105043
-0.0106523
-0.0107269
-0.0107645
-0.0107853
-0.0105005
-0.00899438
0.00585622
0.00568547
0.00550711
0.00517715
0.00474975
0.00424234
0.00365268
0.00292941
0.00209817
0.00120195
0.000226559
-0.000810835
-0.00188487
-0.00296876
-0.00403426
-0.00505369
-0.00600224
-0.00685993
-0.00761277
-0.0082532
-0.00877983
-0.00919656
-0.00951149
-0.00973529
-0.00987921
-0.00995726
-0.0100027
-0.0100366
-0.00979486
-0.00842207
0.00518222
0.00493281
0.0047923
0.0045287
0.00417022
0.00373183
0.00321929
0.00259479
0.00184113
0.00103558
0.000157522
-0.00078214
-0.00175875
-0.00274708
-0.00372085
-0.00465422
-0.00552406
-0.00631176
-0.00700438
-0.00759506
-0.00808268
-0.00847114
-0.0087682
-0.00898405
-0.00912933
-0.00921684
-0.00927654
-0.0093293
-0.00913528
-0.00791922
0.00446005
0.00414469
0.00404609
0.00384971
0.00356045
0.00319245
0.00275736
0.00223137
0.00156273
0.000845119
6.63738e-05
-0.000772619
-0.0016485
-0.00253761
-0.00341588
-0.00425965
-0.00504779
-0.00576342
-0.00639488
-0.00693619
-0.00738661
-0.00774996
-0.0080336
-0.00824704
-0.00840008
-0.00850414
-0.00858565
-0.0086637
-0.00852303
-0.00748825
0.00367276
0.00331147
0.00326067
0.00313435
0.00291687
0.0026217
0.00226283
0.0018314
0.00125952
0.00062685
-4.98998e-05
-0.000784284
-0.00155515
-0.00234026
-0.00311802
-0.00386743
-0.00456981
-0.00521041
-0.00577927
-0.00627147
-0.00668675
-0.00702879
-0.00730437
-0.00752208
-0.0076905
-0.00781941
-0.00793134
-0.00804213
-0.00796131
-0.00713209
0.0027982
0.0024199
0.00242419
0.00237284
0.00223256
0.00201586
0.00173192
0.00138874
0.000927765
0.000378668
-0.000193873
-0.000819049
-0.0014797
-0.00215494
-0.00282606
-0.00347522
-0.00408683
-0.00464885
-0.00515344
-0.00559706
-0.00597992
-0.00630542
-0.00657957
-0.00680957
-0.00700236
-0.00716561
-0.00731748
-0.00746902
-0.0074552
-0.0068532
0.00181543
0.00146523
0.00153073
0.00155728
0.00150031
0.00136738
0.00116389
0.000905987
0.000559769
9.92427e-05
-0.000368651
-0.00088016
-0.00142461
-0.00198285
-0.0025395
-0.00308069
-0.00359476
-0.00407326
-0.00451121
-0.0049069
-0.00526055
-0.00557527
-0.00585608
-0.00610823
-0.00633619
-0.00654484
-0.00674731
-0.00694838
-0.00700995