/*--------------------------------*- C++ -*----------------------------------*\
  =========                 |
  \\      /  F ield         | OpenFOAM: The Open Source CFD Toolbox
   \\    /   O peration     | Website:  https://openfoam.org
    \\  /    A nd           | Version:  12
     \\/     M anipulation  |
\*---------------------------------------------------------------------------*/
FoamFile
{
    format      ascii;
    class       surfaceScalarField;
    location    "60";
    object      phi;
}
// * * * * * * * * * * * * * * * * * * * * * * * * * * * * * * * * * * * * * //

dimensions      [0 3 -1 0 0 0 0];

internalField   nonuniform List<scalar> 
13275
(
0.369046
-0.00480727
0.369535
-0.011894
0.369877
-0.015904
0.370018
-0.0178661
-0.018501
0.369979
0.351107
-0.00508896
0.351486
-0.012273
0.351727
-0.0161446
0.351708
-0.0178478
-0.0181237
0.351331
0.334003
-0.00521325
0.334082
-0.0123524
0.333979
-0.0160409
0.333652
-0.0175207
-0.0175937
0.333122
0.317717
-0.00517966
0.317498
-0.0121337
0.317083
-0.015625
0.316506
-0.0169442
-0.0169153
0.315828
0.302237
-0.00501428
0.301764
-0.0116607
0.301078
-0.0149396
0.30027
-0.0161364
-0.0160623
0.299417
0.287522
-0.00474201
0.286834
-0.0109727
0.285909
-0.0140149
0.284878
-0.0151053
-0.0150162
0.283832
0.273531
-0.00438089
0.272659
-0.0101002
0.27152
-0.0128757
0.270277
-0.0138624
-0.0137743
0.269035
0.260227
-0.00394533
0.259197
-0.00907031
0.25787
-0.0115487
0.256435
-0.0124275
-0.0123483
0.255009
0.247575
-0.00344901
0.246416
-0.00791151
0.244933
-0.0100654
0.243334
-0.0108294
-0.0107627
0.241749
0.235545
-0.0029062
0.234288
-0.00665467
0.232685
-0.00846238
0.230961
-0.00910487
-0.00905159
0.22925
0.224109
-0.00233176
0.222787
-0.00533231
0.221104
-0.00677949
0.219294
-0.00729506
-0.00725467
0.217497
0.213239
-0.00174053
0.211884
-0.00397681
0.210161
-0.0050568
0.208308
-0.00544228
-0.00541358
0.206467
0.202908
-0.00114674
0.201549
-0.00261849
0.199825
-0.00333215
0.197969
-0.00358665
-0.00356827
0.196124
0.193088
-0.000563261
0.191754
-0.00128449
0.19006
-0.00163864
0.188237
-0.00176336
-0.0017542
0.186423
0.183753
-2.74301e-07
0.182469
-6.43918e-07
0.180831
-8.40607e-07
0.179069
-9.15933e-07
-9.18179e-07
0.177316
0.183753
0.000562711
0.182469
0.0012832
0.180831
0.00163696
0.179069
0.00176153
0.00175237
0.177316
0.193088
0.0011462
0.191754
0.0026172
0.19006
0.00333048
0.188237
0.00358483
0.00356644
0.186423
0.202908
0.00173999
0.201549
0.00397553
0.199825
0.00505514
0.197969
0.00544047
0.00541176
0.196124
0.213239
0.00233122
0.211884
0.00533104
0.210161
0.00677783
0.208308
0.00729326
0.00725286
0.206467
0.224109
0.00290567
0.222787
0.00665341
0.221104
0.00846074
0.219294
0.00910308
0.00904979
0.217497
0.235545
0.00344848
0.234288
0.00791026
0.232685
0.0100637
0.230961
0.0108276
0.0107609
0.22925
0.247575
0.00394481
0.246416
0.00906907
0.244933
0.0115471
0.243334
0.0124257
0.0123465
0.241749
0.260227
0.00438038
0.259197
0.010099
0.25787
0.0128741
0.256435
0.0138607
0.0137725
0.255009
0.273531
0.0047415
0.272659
0.0109715
0.27152
0.0140133
0.270277
0.0151036
0.0150145
0.269035
0.287522
0.00501379
0.286834
0.0116595
0.285909
0.014938
0.284878
0.0161346
0.0160605
0.283832
0.302237
0.00517917
0.301764
0.0121325
0.301078
0.0156234
0.30027
0.0169424
0.0169136
0.299417
0.317717
0.00521277
0.317498
0.0123512
0.317083
0.0160393
0.316506
0.017519
0.0175919
0.315828
0.334003
0.0050885
0.334082
0.0122718
0.333979
0.016143
0.333652
0.017846
0.0181219
0.333122
0.351107
0.00480684
0.351486
0.0118928
0.351727
0.0159025
0.351708
0.0178643
0.0184991
0.351331
0.369046
0.369535
0.369877
0.370018
0.369979
0.197987
-0.0514345
-0.198063
0.197516
-0.0585749
0.196419
-0.064666
0.194684
-0.0699292
0.192376
-0.0743347
0.189576
-0.077824
0.186363
-0.0803141
0.182823
-0.0816944
0.179057
-0.0818463
0.175156
-0.0807182
0.171232
-0.0780445
0.16744
-0.0738063
0.163923
-0.0680477
0.160826
-0.0608636
0.158276
-0.0524361
0.15638
-0.0430255
0.155206
-0.0329503
0.154784
-0.0225577
0.155101
-0.0121954
0.156102
-0.00216932
0.157728
0.00724762
0.159881
0.0158649
0.162456
0.0235335
0.165348
0.0301716
0.168455
0.0357495
0.171684
0.040278
0.174949
0.0437955
0.178176
0.0463585
0.181303
0.0480342
0.0488651
0.184271
0.195355
-0.0515069
-0.195282
0.194621
-0.0578408
0.193184
-0.063229
0.191153
-0.0678985
0.188615
-0.0717971
0.185652
-0.0748603
0.182337
-0.0769993
0.178745
-0.0781027
0.174977
-0.0780781
0.171105
-0.0768462
0.16724
-0.0741797
0.163523
-0.0700892
0.160086
-0.0646104
0.157058
-0.0578362
0.154559
-0.0499364
0.152682
-0.0411489
0.151493
-0.0317608
0.151019
-0.0220841
0.151252
-0.0124281
0.152158
-0.00307523
0.153666
0.00573962
0.155698
0.0138328
0.158159
0.021072
0.160952
0.0273787
0.163981
0.032721
0.167155
0.0371038
0.170393
0.0405576
0.173621
0.0431297
0.176768
0.0448873
0.0459251
0.179708
0.192025
-0.0511892
-0.192343
0.190979
-0.0567948
0.189323
-0.0615728
0.187145
-0.0657202
0.184519
-0.0691716
0.181514
-0.0718548
0.178193
-0.0736787
0.174627
-0.0745362
0.170911
-0.0743623
0.167104
-0.073039
0.16332
-0.0703965
0.159688
-0.0664566
0.156328
-0.0612508
0.153362
-0.0548704
0.1509
-0.0474741
0.149031
-0.0392793
0.147815
-0.0305456
0.147284
-0.0215528
0.147433
-0.0125774
0.14823
-0.00387214
0.149618
0.00435189
0.151523
0.011928
0.153858
0.0187366
0.156533
0.0247043
0.159455
0.0297987
0.162539
0.0340201
0.165704
0.0373921
0.168881
0.0399528
0.172003
0.0417656
0.0429846
0.174943
0.188567
-0.050517
-0.189239
0.187255
-0.0554825
0.185411
-0.0597292
0.183105
-0.0634138
0.1804
-0.0664664
0.177355
-0.0688104
0.174032
-0.0703555
0.170497
-0.0710017
0.166835
-0.0707004
0.163099
-0.0693029
0.159404
-0.0667009
0.15586
-0.0629133
0.152581
-0.0579718
0.149677
-0.0519659
0.147247
-0.0450443
0.145375
-0.0374072
0.144119
-0.0292898
0.14351
-0.020944
0.14355
-0.0126172
0.144213
-0.00453476
0.145451
0.00311369
0.1472
0.0101792
0.149382
0.0165544
0.151914
0.0221725
0.154711
0.027002
0.15769
0.0310409
0.160775
0.0343073
0.163896
0.036831
0.166994
0.0386682
0.0400334
0.169945
0.185011
-0.0495408
-0.185987
0.183466
-0.0539378
0.181451
-0.0577144
0.179026
-0.0609888
0.176247
-0.0636877
0.173169
-0.0657318
0.169847
-0.0670336
0.166348
-0.0675025
0.162738
-0.0670905
0.159075
-0.0656397
0.155465
-0.0630917
0.152009
-0.0594572
0.148808
-0.0547705
0.145961
-0.0491191
0.14356
-0.0426435
0.141682
-0.0355284
0.14038
-0.0279886
0.139688
-0.0202516
0.13961
-0.0125391
0.140128
-0.00505254
0.141202
0.00203893
0.142779
0.00860284
0.144789
0.0145441
0.147158
0.0198031
0.149809
0.0243511
0.152665
0.028185
0.155653
0.0313195
0.158706
0.0337776
0.161767
0.0356075
0.0370783
0.164722
0.181326
-0.0482922
-0.182575
0.179573
-0.0521844
0.177406
-0.0555476
0.174878
-0.0584611
0.172039
-0.0608483
0.168936
-0.0626292
0.165622
-0.0637197
0.162161
-0.0640416
0.158603
-0.0635319
0.155012
-0.0620492
0.151485
-0.0595647
0.148111
-0.0560831
0.144982
-0.0516416
0.142189
-0.0463258
0.139815
-0.040269
0.137929
-0.0336426
0.136584
-0.0266435
0.13581
-0.019478
0.135617
-0.0123457
0.135991
-0.00542646
0.1369
0.00112913
0.138299
0.00720399
0.140129
0.0127146
0.142323
0.0176089
0.144812
0.021862
0.147526
0.0254712
0.150397
0.0284488
0.153361
0.0308133
0.156363
0.0326053
0.034138
0.159303
0.177497
-0.0467992
-0.17899
0.175559
-0.0502468
0.173262
-0.0532504
0.170649
-0.0558482
0.167763
-0.0579619
0.164646
-0.0595127
0.161345
-0.0604189
0.157922
-0.0606184
0.154416
-0.0600257
0.150896
-0.0585296
0.147447
-0.0561151
0.144149
-0.0527852
0.141086
-0.0485795
0.138343
-0.0435821
0.135993
-0.0379194
0.134102
-0.0317513
0.132717
-0.025259
0.13187
-0.0186301
0.131569
-0.0120448
0.131806
-0.00566398
0.132557
0.000378643
0.133781
0.00597997
0.135428
0.0110674
0.137441
0.0155961
0.139757
0.0195455
0.142314
0.0229144
0.145049
0.025714
0.147903
0.0279596
0.150822
0.0296858
0.0312371
0.153723
0.173516
-0.045092
-0.175223
0.171421
-0.0481517
0.169014
-0.0508436
0.166332
-0.0531658
0.16341
-0.0550397
0.160286
-0.0563895
0.157005
-0.0571377
0.15362
-0.0572327
0.150165
-0.0565712
0.146712
-0.0550767
0.143334
-0.0527373
0.140107
-0.0495577
0.137107
-0.0455794
0.13441
-0.040885
0.132085
-0.0355946
0.130191
-0.0298577
0.128774
-0.0238414
0.12786
-0.0177169
0.127463
-0.0116471
0.127575
-0.00577612
0.128176
-0.000222539
0.129233
0.00492315
0.130702
0.00959821
0.132533
0.0137649
0.134672
0.017407
0.137061
0.020525
0.139645
0.0231301
0.142369
0.0252356
0.145183
0.0268717
0.0284019
0.148018
0.169383
-0.0432015
-0.171274
0.167156
-0.0459248
0.164659
-0.0483466
0.161921
-0.0504279
0.158973
-0.0520916
0.15585
-0.053266
0.152592
-0.0538803
0.149243
-0.053883
0.145839
-0.0531675
0.142449
-0.0516865
0.139138
-0.0494265
0.135976
-0.0463956
0.133034
-0.0426374
0.130381
-0.0382326
0.128082
-0.0332954
0.12619
-0.0279657
0.124747
-0.0223979
0.123778
-0.0167484
0.123296
-0.0111647
0.123295
-0.00577581
0.12376
-0.000687008
0.12466
0.00402257
0.125959
0.00829906
0.127613
0.0121112
0.129573
0.0154467
0.13179
0.0183085
0.134213
0.0207076
0.136791
0.0226566
0.13948
0.024183
0.0256572
0.142225
0.165097
-0.0411577
-0.16714
0.162762
-0.0435901
0.160192
-0.045777
0.157412
-0.0476474
0.154447
-0.0491266
0.151328
-0.0501475
0.148096
-0.0506483
0.144781
-0.050568
0.141428
-0.0498138
0.138096
-0.0483552
0.134848
-0.0461784
0.131748
-0.0432952
0.128861
-0.0397508
0.126253
-0.035624
0.123981
-0.0310235
0.122095
-0.02608
0.120633
-0.0209361
0.11962
-0.015735
0.119065
-0.01061
0.118966
-0.00567684
0.119308
-0.00102872
0.120065
0.00326525
0.121205
0.00715908
0.122689
0.0106272
0.124475
0.0136612
0.126517
0.0162658
0.128772
0.0184526
0.131195
0.0202339
0.133742
0.0216355
0.0230252
0.136374
0.160656
-0.0389889
-0.162825
0.158235
-0.0411693
0.155609
-0.0431508
0.152797
-0.0448357
0.149823
-0.0461525
0.146714
-0.0470379
0.143506
-0.0474411
0.140227
-0.0472886
0.136923
-0.0465094
0.133648
-0.0450802
0.130459
-0.0429899
0.127418
-0.0402538
0.124585
-0.0369181
0.122021
-0.0330595
0.119778
-0.0287813
0.117904
-0.0242056
0.116432
-0.0194639
0.115384
-0.0146871
0.11477
-0.00999559
0.114586
-0.0054931
0.114819
-0.00126211
0.115447
0.00263718
0.116441
0.00616573
0.117765
0.00930298
0.119382
0.0120437
0.121254
0.0143943
0.123339
0.0163671
0.125599
0.0179742
0.127994
0.019241
0.0205242
0.130495
0.15606
-0.0367205
-0.158328
0.153572
-0.0386816
0.150903
-0.040482
0.14807
-0.0420025
0.145093
-0.0431756
0.141998
-0.0439431
0.138817
-0.0442595
0.135574
-0.0440457
0.132317
-0.0432528
0.129096
-0.0418596
0.125965
-0.0398591
0.122982
-0.0372699
0.120202
-0.0341389
0.117683
-0.0305405
0.115474
-0.0265723
0.113617
-0.0223482
0.112142
-0.0179893
0.11107
-0.0136148
0.110408
-0.0093336
0.110153
-0.00523821
0.110293
-0.00140154
0.110806
0.00212407
0.111666
0.00530561
0.112842
0.00812682
0.114301
0.0105852
0.116006
0.0126886
0.117924
0.0144496
0.120018
0.0158805
0.122252
0.0170067
0.0181679
0.124608
0.151305
-0.0343754
-0.15365
0.148767
-0.0361439
0.146068
-0.0377829
0.143222
-0.0391568
0.140249
-0.0402019
0.137173
-0.0408671
0.134018
-0.0411042
0.130813
-0.0408408
0.127603
-0.0400435
0.124436
-0.0386926
0.121363
-0.0367855
0.118436
-0.0343436
0.115712
-0.0314142
0.11324
-0.0280691
0.111068
-0.0244004
0.109234
-0.0205137
0.107765
-0.0165202
0.106678
-0.0125282
0.10598
-0.00863572
0.105667
-0.00492521
0.105727
-0.00146094
0.106139
0.00171174
0.10688
0.00456504
0.10792
0.00708631
0.10923
0.00927523
0.110778
0.0111408
0.112532
0.0126956
0.11446
0.0139524
0.11653
0.0149362
0.015966
0.118732
0.146388
-0.0319738
-0.148789
0.143814
-0.0335705
0.141096
-0.035065
0.138247
-0.0363074
0.135282
-0.0372372
0.132227
-0.0378123
0.129101
-0.0379779
0.125937
-0.0376763
0.122776
-0.0368825
0.119663
-0.0355797
0.116647
-0.0337696
0.113779
-0.0314761
0.111111
-0.0287461
0.108691
-0.0256487
0.106561
-0.0222702
0.104755
-0.0187083
0.1033
-0.0150645
0.102208
-0.0114368
0.101485
-0.00791303
0.101127
-0.0045665
0.101119
-0.00145361
0.101445
0.00138646
0.102079
0.00393043
0.102997
0.00616865
0.10417
0.00810252
0.105569
0.00974164
0.107166
0.0110987
0.108932
0.0121863
0.110838
0.0130297
0.0139238
0.11288
0.1413
-0.0295325
-0.143741
0.138704
-0.0309751
0.135978
-0.0323389
0.133133
-0.0334621
0.130184
-0.0342887
0.127154
-0.034782
0.12406
-0.034884
0.120938
-0.0345545
0.117827
-0.0337715
0.11477
-0.0325228
0.111814
-0.0308136
0.109008
-0.0286698
0.1064
-0.0261378
0.104034
-0.0232833
0.101951
-0.0201869
0.100181
-0.0169384
0.0987464
-0.0136299
0.0976593
-0.0103497
0.0969224
-0.00717606
0.0965296
-0.00417376
0.0964681
-0.00139212
0.0967195
0.00113513
0.0972613
0.0033886
0.0980689
0.00536108
0.0991162
0.00705522
0.100377
0.00848093
0.101825
0.0096506
0.103434
0.0105768
0.10518
0.0112846
0.0120433
0.10706
0.136031
-0.0270667
-0.138497
0.133426
-0.0283707
0.130702
-0.0296148
0.127869
-0.0306287
0.124943
-0.0313627
0.12194
-0.0317794
0.118884
-0.0318273
0.115808
-0.0314787
0.11275
-0.0307138
0.109752
-0.029525
0.10686
-0.0279208
0.104118
-0.0259284
0.101574
-0.0235934
0.0992684
-0.0209778
0.0972378
-0.0181563
0.0955101
-0.0152107
0.0941045
-0.0122243
0.0930307
-0.00927586
0.0922894
-0.00643477
0.0918736
-0.00375796
0.0917697
-0.00128829
0.0919595
0.000945359
0.0924212
0.0029269
0.0931312
0.00465109
0.094065
0.00612144
0.0951981
0.0073478
0.0965066
0.00834211
0.0979668
0.00911664
0.0995554
0.00969595
0.0103233
0.101275
0.130569
-0.0245901
-0.133046
0.127969
-0.0257706
0.125257
-0.0269029
0.122443
-0.0278149
0.119545
-0.0284642
0.116575
-0.02881
0.113562
-0.0288137
0.110537
-0.0284537
0.107537
-0.0277139
0.104602
-0.0265908
0.101777
-0.0250957
0.0991058
-0.0232569
0.0966306
-0.0211182
0.0943907
-0.0187379
0.0924189
-0.0161845
0.0907404
-0.0135322
0.0893714
-0.0108553
0.0883193
-0.00822377
0.0875831
-0.00569859
0.0871545
-0.00332937
0.0870194
-0.00115315
0.0871592
0.000805519
0.0875528
0.00253336
0.0881772
0.00402667
0.0890092
0.00528945
0.0900257
0.00633125
0.0912045
0.00716328
0.0925238
0.00779741
0.0939624
0.00825735
0.00876024
0.0955254
0.124898
-0.022117
-0.127372
0.122315
-0.0231866
0.119624
-0.0242125
0.116839
-0.0250297
0.113974
-0.0255992
0.111045
-0.025881
0.108081
-0.0258493
0.105112
-0.0254855
0.102176
-0.0247776
0.0993113
-0.0237259
0.0965598
-0.0223443
0.093964
-0.020661
0.091564
-0.0187183
0.089396
-0.0165699
0.0874897
-0.0142782
0.0858673
-0.0119098
0.0845426
-0.00953052
0.0835205
-0.00720168
0.0827983
-0.00497643
0.0823666
-0.00289763
0.0822104
-0.000996974
0.0823111
0.000704774
0.0826478
0.00219674
0.083198
0.00347639
0.0839396
0.00454792
0.0848505
0.00542031
0.0859099
0.00610393
0.0870973
0.00661
0.0883935
0.00696107
0.00734879
0.089805
0.119
-0.0196623
-0.121455
0.116443
-0.0206294
0.113783
-0.0215528
0.111035
-0.0222818
0.108212
-0.0227754
0.105332
-0.0230015
0.102425
-0.0229421
0.0995208
-0.0225815
0.0966554
-0.0219122
0.0938672
-0.0209377
0.0911965
-0.0196736
0.0886834
-0.0181479
0.0863656
-0.0164005
0.0842765
-0.0144807
0.0824428
-0.0124446
0.0808839
-0.0103509
0.0796109
-0.00825752
0.0786267
-0.00621754
0.077927
-0.00427672
0.0775011
-0.00247168
0.0773334
-0.000829284
0.0774051
0.000633089
0.0776952
0.00190658
0.0781821
0.00298952
0.078844
0.00388604
0.0796599
0.00460437
0.08061
0.00515387
0.0816751
0.00554495
0.0828375
0.00579867
0.00608224
0.084104
0.112846
-0.0172401
-0.115268
0.110326
-0.0181095
0.107709
-0.0189359
0.105008
-0.0195807
0.102236
-0.020003
0.0994154
-0.0201813
0.0965744
-0.0201011
0.0937435
-0.0197507
0.0909578
-0.0191264
0.0882547
-0.0182346
0.0856731
-0.017092
0.0832509
-0.0157257
0.0810233
-0.0141729
0.0790207
-0.0124781
0.0772671
-0.010691
0.0757792
-0.00886295
0.0745655
-0.00704381
0.073627
-0.00527902
0.0729577
-0.00360743
0.0725459
-0.00205988
0.0723754
-0.000658851
0.0724273
0.000581249
0.0726806
0.00165326
0.073114
0.00255612
0.0737064
0.00329368
0.0744374
0.00387328
0.0752881
0.00430317
0.0762403
0.0045928
0.0772775
0.00476142
0.00495311
0.0784067
0.1064
-0.0148653
-0.108774
0.103931
-0.015641
0.10137
-0.0163747
0.0987262
-0.016937
0.0960173
-0.0172942
0.0932674
-0.0174314
0.0905034
-0.0173371
0.0877563
-0.0170036
0.0850607
-0.0164308
0.0824529
-0.0156269
0.0799702
-0.0146092
0.0776483
-0.0134038
0.0755198
-0.0120444
0.0736122
-0.0105706
0.0719468
-0.00902565
0.0705375
-0.00745365
0.0693906
-0.00589691
0.0685052
-0.00439359
0.0678739
-0.00297607
0.0674839
-0.00166993
0.0673187
-0.000493683
0.0673591
0.000540897
0.0675843
0.00142806
0.0679733
0.00216713
0.0685054
0.00276155
0.069161
0.00321764
0.0699217
0.00354247
0.0707702
0.00374439
0.0716909
0.00384063
0.00395355
0.0726905
0.0996165
-0.0125544
-0.101927
0.097215
-0.0132395
0.094722
-0.0138817
0.0921495
-0.0143645
0.0895182
-0.0146629
0.0868518
-0.014765
0.0841778
-0.014663
0.0815272
-0.014353
0.078934
-0.0138376
0.0764336
-0.0131264
0.0740612
-0.0122369
0.0718504
-0.011193
0.069831
-0.010025
0.0680279
-0.00876743
0.0664593
-0.0074571
0.0651367
-0.00613106
0.0640642
-0.00482439
0.0632391
-0.00356848
0.0626528
-0.00238974
0.0622917
-0.00130892
0.062139
-0.000340985
0.0621753
0.0005046
0.0623801
0.00122325
0.0627327
0.00181453
0.0632129
0.00228135
0.0638016
0.00262895
0.0644809
0.00286319
0.0652341
0.00299122
0.0660467
0.00302806
0.0030759
0.0669243
0.0924354
-0.0103261
-0.0946637
0.0901177
-0.0109218
0.0877089
-0.0114728
0.0852249
-0.0118805
0.0826871
-0.0121251
0.08012
-0.0121979
0.0775515
-0.0120945
0.0750128
-0.0118143
0.0725369
-0.0113617
0.0701581
-0.0107476
0.0679095
-0.00998829
0.0658223
-0.00910578
0.0639235
-0.0081263
0.0622352
-0.0070791
0.0607729
-0.00599481
0.0595455
-0.00490366
0.0585551
-0.00383396
0.0577974
-0.00281079
0.0572628
-0.00185509
0.0569371
-0.000983253
0.0568032
-0.000207082
0.0568418
0.000465966
0.0570328
0.00103228
0.0573558
0.00149152
0.0577912
0.001846
0.0583202
0.00209988
0.0589256
0.00225783
0.059591
0.00232575
0.0603028
0.00231629
0.00231304
0.0610657
0.0847724
-0.008202
-0.0868965
0.0825576
-0.00870696
0.0802535
-0.00916875
0.077878
-0.00950502
0.0754533
-0.00970041
0.0730049
-0.00974946
0.0705611
-0.00965076
0.0681528
-0.00940603
0.0658125
-0.00902136
0.0635724
-0.0085075
0.0614638
-0.00787969
0.0595151
-0.00715705
0.0577505
-0.0063617
0.056189
-0.0055176
0.0548435
-0.00464931
0.0537205
-0.00378065
0.0528201
-0.00293361
0.0521368
-0.00212749
0.05166
-0.00137831
0.0513754
-0.000698575
0.0512656
-9.72848e-05
0.0513117
0.000419835
0.051494
0.000849968
0.0517927
0.00119278
0.0521887
0.00144999
0.0526639
0.00162471
0.0532013
0.00172046
0.0537852
0.00174188
0.0544022
0.00169922
0.00165899
0.0550563
0.0765063
-0.00620634
-0.0785019
0.0744197
-0.00662037
0.0722458
-0.00699485
0.0700036
-0.0072628
0.0677166
-0.00741343
0.0654113
-0.00744417
0.0631164
-0.00735589
0.0608624
-0.00715201
0.0586803
-0.00683924
0.0566006
-0.0064278
0.054652
-0.00593105
0.0528599
-0.00536499
0.0512456
-0.00474741
0.0498251
-0.00409708
0.0486085
-0.00343274
0.0476001
-0.00277223
0.0467983
-0.0021318
0.0461964
-0.00152556
0.0457832
-0.000965148
0.0455443
-0.000459655
0.0454626
-1.56556e-05
0.0455199
0.0003626
0.0456969
0.000672944
0.0459747
0.000915003
0.0463348
0.0010899
0.0467597
0.00119982
0.0472329
0.00124721
0.0477393
0.00123553
0.0482658
0.00117266
0.0011095
0.0488153
0.0674604
-0.00437152
-0.0692952
0.0655348
-0.00469477
0.0635231
-0.00498315
0.0614464
-0.00518605
0.0593296
-0.00529667
0.0572
-0.00531459
0.0550863
-0.00524212
0.0530177
-0.00508349
0.0510238
-0.00484529
0.0491325
-0.0045365
0.0473696
-0.00416814
0.0457574
-0.00375276
0.0443138
-0.00330381
0.0430517
-0.00283499
0.0419786
-0.00235965
0.0410966
-0.00189023
0.0404026
-0.00143786
0.0398892
-0.00101209
0.0395448
-0.000620801
0.0393553
-0.000270141
0.0393043
3.53663e-05
0.0393742
0.000292713
0.0395469
0.000500258
0.0398043
0.000657565
0.040129
0.000765231
0.0405042
0.000824597
0.0409142
0.00083723
0.0413442
0.000805536
0.0417817
0.000735139
0.000662797
0.0422284
0.0573588
-0.00274027
-0.0589901
0.0556375
-0.00297342
0.0538326
-0.00317834
0.0519672
-0.00332056
0.050067
-0.00339652
0.0481594
-0.003407
0.0462721
-0.00335485
0.0444329
-0.00324425
0.0426686
-0.00308094
0.0410041
-0.00287209
0.0394619
-0.00262594
0.0380606
-0.00235144
0.0368146
-0.00205777
0.0357335
-0.00175395
0.0348224
-0.00144848
0.0340812
-0.00114907
0.0335058
-0.000862487
0.0330882
-0.000594486
0.0328172
-0.000349793
0.0326792
-0.000132145
0.032659
5.56316e-05
0.0327401
0.000211555
0.0329059
0.000334421
0.0331398
0.000423739
0.0334253
0.000479662
0.0337471
0.00050284
0.0340902
0.000494124
0.0344407
0.000455044
0.0347866
0.000389211
0.000320621
0.0351288
0.0457432
-0.00137579
-0.0471077
0.0442925
-0.00152265
0.0427637
-0.0016496
0.0411805
-0.00173729
0.0395683
-0.00178435
0.0379532
-0.0017919
0.0363609
-0.00176252
0.0348162
-0.0016996
0.0333427
-0.00160739
0.0319613
-0.00149076
0.0306904
-0.00135496
0.0295443
-0.00120535
0.0285336
-0.00104715
0.027665
-0.000885258
0.0269406
-0.000724082
0.026359
-0.000567494
0.0259153
-0.000418805
0.0256016
-0.000280795
0.0254076
-0.000155771
0.0253211
-4.56063e-05
0.0253284
4.82997e-05
0.0254152
0.000124728
0.0255668
0.000182878
0.0257682
0.000222283
0.0260051
0.000242786
0.0262634
0.000244507
0.0265298
0.000227754
0.0267915
0.000193354
0.0270375
0.000143224
9.0153e-05
0.0272679
0.0317976
-0.000389807
-0.0327836
0.0307346
-0.00045969
0.0296037
-0.000518702
0.0284256
-0.000559126
0.0272227
-0.000581435
0.0260177
-0.000586949
0.0248327
-0.000577548
0.0236884
-0.000555303
0.0226035
-0.000522421
0.0215939
-0.000481175
0.0206727
-0.000433803
0.0198498
-0.000382412
0.0191315
-0.000328905
0.0185212
-0.000274941
0.0180191
-0.000221929
0.0176226
-0.000171034
0.017327
-0.000123218
0.0171255
-7.92771e-05
0.0170096
-3.99008e-05
0.0169702
-6.16696e-06
0.0169956
2.28918e-05
0.0170748
4.55369e-05
0.017196
6.16493e-05
0.0173473
7.09674e-05
0.0175169
7.32415e-05
0.0176931
6.82683e-05
0.017865
5.58727e-05
0.0180223
3.60894e-05
0.0181567
8.82616e-06
-1.94083e-05
0.0182662
0.0140103
-0.0144001
0.0135506
0.0130319
0.0124728
0.0118914
0.0113044
0.0107269
0.0101716
0.00964915
0.00916797
0.00873417
0.00835176
0.00802285
0.00774791
0.00752598
0.00735495
0.00723173
0.00715245
0.00711255
0.00710638
0.00712928
0.00717481
0.00723646
0.00730743
0.00738067
0.00744894
0.00750481
0.0075409
0.00754973
0.00753032
0.351357
-0.179441
0.333974
-0.1779
0.317214
-0.175582
0.300948
-0.172973
0.285069
-0.170108
0.269493
-0.166998
0.254167
-0.163663
0.239062
-0.160119
0.224165
-0.156376
0.209471
-0.152447
0.194986
-0.14834
0.18072
-0.144062
0.166688
-0.139618
0.152908
-0.135009
0.139403
-0.130235
0.126197
-0.125291
0.113319
-0.120168
0.1008
-0.114852
0.0886732
-0.109328
0.0769751
-0.10357
0.0657483
-0.0975476
0.0550404
-0.0912195
0.044907
-0.0845303
0.035414
-0.0774035
0.0266433
-0.0697313
0.018702
-0.0613539
0.0117387
-0.0520268
0.00598027
-0.0413493
0.00182487
-0.0286282
-0.0125753
0.334709
-0.162818
0.318237
-0.161427
0.302175
-0.159521
0.286454
-0.157253
0.271018
-0.154672
0.255834
-0.151815
0.240886
-0.148715
0.226164
-0.145396
0.211666
-0.141879
0.197399
-0.13818
0.183371
-0.134312
0.169597
-0.130287
0.156092
-0.126113
0.142876
-0.121793
0.129969
-0.117328
0.117393
-0.112716
0.105174
-0.107949
0.0933386
-0.103017
0.0819154
-0.0979045
0.070937
-0.0925916
0.0604399
-0.0870506
0.0504659
-0.0812455
0.0410632
-0.0751276
0.0322901
-0.0686304
0.0242192
-0.0616604
0.0169464
-0.0540811
0.0106052
-0.0456856
0.00539835
-0.0361424
0.00166575
-0.0248956
-0.0109095
0.317367
-0.147063
0.301779
-0.14584
0.286442
-0.144183
0.271346
-0.142157
0.256479
-0.139805
0.241834
-0.137169
0.227407
-0.134289
0.213204
-0.131193
0.199231
-0.127906
0.1855
-0.124448
0.172024
-0.120837
0.158821
-0.117084
0.145908
-0.1132
0.133303
-0.109188
0.121026
-0.105051
0.109098
-0.100788
0.097541
-0.0963922
0.08638
-0.0918557
0.0756408
-0.0871652
0.0653521
-0.0823029
0.0555464
-0.0772449
0.0462606
-0.0719597
0.0375379
-0.0664048
0.0294304
-0.0605229
0.0220034
-0.0542335
0.0153432
-0.0474209
0.00956979
-0.0399122
0.00486215
-0.0314348
0.00150966
-0.0215431
-0.00939984
0.300826
-0.132061
0.285955
-0.13097
0.271252
-0.12948
0.256728
-0.127633
0.242393
-0.12547
0.228258
-0.123035
0.214336
-0.120367
0.20064
-0.117497
0.187186
-0.114451
0.173989
-0.111251
0.161065
-0.107914
0.148433
-0.104452
0.136109
-0.100875
0.124111
-0.0971899
0.112457
-0.0933974
0.101166
-0.089497
0.0902584
-0.0854846
0.0797552
-0.0813525
0.0696794
-0.0770895
0.0600565
-0.07268
0.0509149
-0.0681034
0.0422874
-0.0633322
0.0342126
-0.05833
0.0267371
-0.0530474
0.0199195
-0.047416
0.0138372
-0.0413385
0.00859666
-0.0346716
0.00435429
-0.0271924
0.00135385
-0.0185426
-0.00804599
0.28504
-0.117684
0.270758
-0.116688
0.256604
-0.115326
0.242599
-0.113629
0.228769
-0.11164
0.215135
-0.109401
0.201717
-0.106949
0.188534
-0.104314
0.175605
-0.101522
0.162949
-0.0985945
0.150582
-0.0955467
0.138522
-0.0923917
0.126784
-0.0891384
0.115387
-0.0857923
0.104345
-0.0823558
0.0936765
-0.0788283
0.0833981
-0.0752063
0.073529
-0.0714833
0.0640892
-0.0676497
0.0551013
-0.063692
0.0465904
-0.0595924
0.0385855
-0.0553274
0.031121
-0.0508655
0.0242386
-0.046165
0.0179908
-0.0411682
0.0124463
-0.0357939
0.00769875
-0.0299241
0.00388337
-0.023377
0.00120461
-0.0158639
-0.00684138
0.269985
-0.103836
0.256218
-0.102921
0.242563
-0.101671
0.229051
-0.100117
0.215714
-0.0983019
0.202577
-0.0962634
0.189664
-0.0940359
0.176998
-0.091648
0.164599
-0.0891232
0.152485
-0.0864806
0.140674
-0.0837353
0.129181
-0.0808989
0.118022
-0.0779795
0.107212
-0.0749821
0.0967649
-0.071909
0.0866964
-0.0687598
0.0770218
-0.0655316
0.0677573
-0.0622189
0.0589209
-0.0588132
0.0505321
-0.0553033
0.0426133
-0.0516737
0.0351904
-0.0479044
0.0282937
-0.0439689
0.0219606
-0.0398319
0.0162377
-0.0354453
0.0111857
-0.0307419
0.00688655
-0.025625
0.00345636
-0.0199468
0.00106675
-0.0134743
-0.00577463
0.255665
-0.0904667
0.242373
-0.0896293
0.229195
-0.0884917
0.216164
-0.0870864
0.203313
-0.0854515
0.190673
-0.0836226
0.178267
-0.0816302
0.166119
-0.0795
0.154248
-0.0772529
0.142674
-0.074906
0.131411
-0.0724726
0.120475
-0.069963
0.10988
-0.0673841
0.0996383
-0.0647406
0.0897636
-0.0620343
0.0802689
-0.0592651
0.0711676
-0.0564303
0.0624742
-0.0535254
0.0542042
-0.0505432
0.046375
-0.0474741
0.0390063
-0.044305
0.0321211
-0.0410192
0.0257465
-0.0375943
0.0199156
-0.034001
0.0146698
-0.0301995
0.0100625
-0.0261346
0.00616515
-0.0217276
0.00307718
-0.0168588
0.000943347
-0.0113404
-0.00483129
0.242094
-0.0775514
0.229262
-0.0767974
0.21655
-0.0757803
0.203996
-0.0745322
0.191632
-0.0730878
0.179488
-0.0714784
0.167589
-0.0697309
0.155956
-0.0678674
0.14461
-0.0659063
0.133566
-0.0638622
0.12284
-0.0617465
0.112445
-0.0595679
0.102393
-0.0573325
0.0926967
-0.0550441
0.0833669
-0.0527045
0.074415
-0.0503132
0.065853
-0.0478684
0.0576935
-0.0453659
0.0499502
-0.0427999
0.0426384
-0.0401623
0.0357756
-0.0374422
0.0293822
-0.0346257
0.0234822
-0.0316943
0.0181052
-0.0286239
0.0132877
-0.025382
0.00907683
-0.0219237
0.00553458
-0.0181854
0.00274661
-0.0140709
0.000835647
-0.00942948
-0.00399564
0.229282
-0.0650848
0.216908
-0.0644228
0.204664
-0.0635362
0.192587
-0.0624556
0.18071
-0.0612112
0.169062
-0.05983
0.157666
-0.0583349
0.146543
-0.0567445
0.135711
-0.0550742
0.125185
-0.0533363
0.114979
-0.0515403
0.105104
-0.0496935
0.0955727
-0.0478008
0.0863941
-0.0458655
0.0775784
-0.0438888
0.0691359
-0.0418707
0.0610767
-0.0398092
0.0534121
-0.0377013
0.0461542
-0.035542
0.0393164
-0.0333245
0.0329144
-0.0310402
0.0269662
-0.0286775
0.0214934
-0.0262215
0.0165222
-0.0236527
0.012085
-0.0209448
0.00822329
-0.018062
0.00499129
-0.0149534
0.00246308
-0.0115427
0.000743616
-0.00771001
-0.00325202
0.217235
-0.0530705
0.205322
-0.0525093
0.193548
-0.0517628
0.181951
-0.0508582
0.170561
-0.0498213
0.159406
-0.0486744
0.148507
-0.047436
0.137884
-0.0461215
0.127553
-0.0447435
0.117529
-0.0433118
0.107822
-0.0418342
0.0984453
-0.0403164
0.089407
-0.0387625
0.0807165
-0.037175
0.0723827
-0.035555
0.0644144
-0.0339023
0.0568207
-0.0322155
0.0496114
-0.030492
0.0427973
-0.0287279
0.0363905
-0.0269177
0.0304048
-0.0250545
0.0248564
-0.0231291
0.0197647
-0.0211298
0.0151529
-0.019041
0.0110501
-0.0168421
0.00749296
-0.0145048
0.00452917
-0.0119896
0.00222339
-0.00923689
0.000666379
-0.006153
-0.00258564
0.205943
-0.0415157
0.194496
-0.0410627
0.183197
-0.0404635
0.172079
-0.039741
0.161174
-0.0389159
0.150505
-0.0380057
0.140094
-0.0370251
0.129959
-0.0359861
0.120114
-0.0348983
0.110572
-0.0337696
0.101343
-0.0326058
0.0924383
-0.0314114
0.0838653
-0.0301896
0.0756325
-0.0289422
0.0677476
-0.0276701
0.0602184
-0.0263731
0.0530531
-0.0250502
0.0462604
-0.0236993
0.0398499
-0.0223174
0.0338325
-0.0209003
0.0282206
-0.0194426
0.0230289
-0.0179374
0.0182747
-0.0163756
0.0139791
-0.0147454
0.0101681
-0.013031
0.00687435
-0.0112111
0.0041404
-0.00925564
0.00202328
-0.00711977
0.000602561
-0.00473229
-0.00198308
0.195379
-0.0304279
0.184405
-0.030088
0.173581
-0.0296401
0.162943
-0.0291023
0.152517
-0.0284899
0.142327
-0.0278157
0.132392
-0.0270906
0.122729
-0.0263233
0.113352
-0.0255208
0.104271
-0.0246889
0.095497
-0.0238317
0.0870382
-0.0229526
0.0789024
-0.0220538
0.0710969
-0.0211366
0.0636286
-0.0202018
0.0565045
-0.0192491
0.0497321
-0.0182778
0.0433191
-0.0172863
0.0372743
-0.0162725
0.0316074
-0.0152334
0.0263299
-0.0141651
0.021455
-0.0130625
0.0169985
-0.0119191
0.0129796
-0.0107264
0.0094217
-0.00947315
0.00635455
-0.00814395
0.00381628
-0.00671738
0.00185795
-0.00516144
0.000550537
-0.00342487
-0.00143255
0.185508
-0.0198123
0.175007
-0.0195873
0.164659
-0.0192918
0.154495
-0.0189379
0.144541
-0.0185358
0.134819
-0.0180937
0.125347
-0.0176188
0.11614
-0.0171167
0.107211
-0.0165919
0.0985706
-0.0160482
0.0902272
-0.0154883
0.0821889
-0.0149143
0.0744628
-0.0143277
0.0670554
-0.0137293
0.0599732
-0.0131195
0.0532223
-0.0124983
0.0468097
-0.0118651
0.0407424
-0.011219
0.0350284
-0.0105585
0.0296767
-0.00988177
0.0246977
-0.00918619
0.0201038
-0.00846855
0.0159093
-0.00772465
0.0121319
-0.00694901
0.00879312
-0.00613441
0.00592016
-0.00527099
0.00354782
-0.00434503
0.00172247
-0.00333609
0.000508615
-0.00221102
-0.000923931
0.176281
-0.00967071
0.166254
-0.00955985
0.156377
-0.00941456
0.14668
-0.00924086
0.137188
-0.00904367
0.127921
-0.00882711
0.118897
-0.00859458
0.110129
-0.00834884
0.101629