/*--------------------------------*- C++ -*----------------------------------*\
  =========                 |
  \\      /  F ield         | OpenFOAM: The Open Source CFD Toolbox
   \\    /   O peration     | Website:  https://openfoam.org
    \\  /    A nd           | Version:  12
     \\/     M anipulation  |
\*---------------------------------------------------------------------------*/
FoamFile
{
    format      ascii;
    class       volScalarField;
    location    "60";
    object      pMean;
}
// * * * * * * * * * * * * * * * * * * * * * * * * * * * * * * * * * * * * * //

dimensions      [0 2 -2 0 0 0 0];

internalField   nonuniform List<scalar> 
6750
(
-0.0297875
-0.0298317
-0.0299307
-0.0301541
-0.0309296
-0.0275428
-0.0275408
-0.0276186
-0.0278332
-0.0281041
-0.0251275
-0.0251432
-0.0252229
-0.0253731
-0.0254669
-0.0226974
-0.0227472
-0.0228212
-0.0229165
-0.0229414
-0.0203324
-0.0204247
-0.0205061
-0.0205709
-0.0205568
-0.0181106
-0.0182495
-0.0183477
-0.0183963
-0.0183589
-0.0160817
-0.0162683
-0.0163862
-0.0164239
-0.0163697
-0.0142755
-0.014509
-0.0146463
-0.0146746
-0.0146064
-0.0127105
-0.0129885
-0.0131434
-0.0131627
-0.013082
-0.0113963
-0.0117149
-0.0118846
-0.011895
-0.0118036
-0.0103342
-0.0106882
-0.0108696
-0.0108716
-0.0107713
-0.00951826
-0.00990173
-0.0100912
-0.0100857
-0.00997865
-0.00893562
-0.00934268
-0.00953611
-0.00952452
-0.00941285
-0.00856821
-0.00899337
-0.00918547
-0.0091702
-0.00905644
-0.00839841
-0.00882939
-0.00901592
-0.0090017
-0.00888858
-0.00839765
-0.00882862
-0.00901513
-0.0090009
-0.00888777
-0.00856591
-0.00899105
-0.00918311
-0.00916781
-0.00905403
-0.00893181
-0.00933882
-0.0095322
-0.00952055
-0.00940885
-0.00951294
-0.00989637
-0.0100857
-0.0100802
-0.00997308
-0.0103274
-0.0106814
-0.0108626
-0.0108646
-0.0107643
-0.0113881
-0.0117066
-0.0118762
-0.0118865
-0.0117951
-0.0127009
-0.0129788
-0.0131336
-0.0131528
-0.0130721
-0.0142646
-0.014498
-0.0146352
-0.0146634
-0.014595
-0.0160695
-0.016256
-0.0163738
-0.0164113
-0.0163571
-0.0180973
-0.0182362
-0.0183342
-0.0183826
-0.0183451
-0.0203181
-0.0204103
-0.0204916
-0.0205562
-0.0205421
-0.0226823
-0.022732
-0.0228059
-0.022901
-0.022926
-0.0251116
-0.0251273
-0.0252068
-0.025357
-0.0254509
-0.0275264
-0.0275243
-0.027602
-0.0278166
-0.0280877
-0.0297706
-0.0298147
-0.0299137
-0.0301371
-0.0309127
-0.0354184
-0.0351034
-0.0341583
-0.0335025
-0.0330554
-0.0327027
-0.0324124
-0.0321575
-0.0319156
-0.0316875
-0.0314299
-0.0311308
-0.0307912
-0.0304104
-0.0299935
-0.0295508
-0.0290952
-0.0286407
-0.0282004
-0.0277805
-0.0273719
-0.026992
-0.0266387
-0.0263077
-0.0259952
-0.0256988
-0.0254147
-0.0251182
-0.0247968
-0.0247586
-0.0323037
-0.0318469
-0.0313515
-0.0311513
-0.03106
-0.0310058
-0.0309805
-0.030964
-0.0309463
-0.0309376
-0.0308759
-0.0307547
-0.0305696
-0.0303152
-0.029995
-0.0296207
-0.0292094
-0.0287807
-0.0283536
-0.0279458
-0.0275824
-0.0272516
-0.0269617
-0.0267117
-0.0264972
-0.0263141
-0.026159
-0.0260087
-0.0257937
-0.0256499
-0.0300028
-0.0299175
-0.0297138
-0.0296491
-0.0296301
-0.0296393
-0.0296806
-0.0297403
-0.0298206
-0.0299279
-0.0300043
-0.0300533
-0.0300658
-0.030031
-0.0299439
-0.0298049
-0.0296191
-0.0293953
-0.0291441
-0.0288762
-0.0285999
-0.0283268
-0.0280633
-0.0278134
-0.0275787
-0.0273607
-0.0271637
-0.026979
-0.0267371
-0.0265099
-0.0284045
-0.0285562
-0.0284512
-0.028411
-0.0284171
-0.0284631
-0.0285501
-0.0286695
-0.0288325
-0.0290357
-0.0292353
-0.0294373
-0.0296287
-0.0297947
-0.0299231
-0.0300043
-0.0300324
-0.0300052
-0.0299245
-0.0297946
-0.0296208
-0.0294136
-0.0291822
-0.028935
-0.0286792
-0.0284215
-0.028171
-0.0279278
-0.0276263
-0.027297
-0.0270423
-0.0272622
-0.027195
-0.0271886
-0.0272402
-0.0273409
-0.0274899
-0.0276846
-0.0279426
-0.0282489
-0.0285754
-0.0289249
-0.0292812
-0.0296258
-0.0299411
-0.0302105
-0.0304203
-0.0305611
-0.0306282
-0.0306218
-0.030546
-0.0304091
-0.0302213
-0.0299939
-0.0297377
-0.0294632
-0.0291831
-0.0289021
-0.0285497
-0.028108
-0.0257595
-0.0259841
-0.0259498
-0.0259895
-0.0260959
-0.0262581
-0.0264766
-0.0267556
-0.0271153
-0.0275301
-0.0279864
-0.0284809
-0.0289947
-0.0295062
-0.0299929
-0.0304329
-0.0308069
-0.0310999
-0.0313027
-0.0314124
-0.0314314
-0.031367
-0.03123
-0.031033
-0.0307892
-0.0305116
-0.030217
-0.0299121
-0.0295212
-0.0289753
-0.0245311
-0.0247414
-0.024743
-0.0248314
-0.0249937
-0.0252194
-0.0255113
-0.0258801
-0.0263425
-0.0268689
-0.0274552
-0.028092
-0.028758
-0.0294286
-0.0300771
-0.030677
-0.0312045
-0.0316402
-0.0319716
-0.0321928
-0.0323047
-0.0323139
-0.0322314
-0.032071
-0.0318471
-0.0315748
-0.0312745
-0.0309545
-0.0305326
-0.0298975
-0.0233444
-0.0235352
-0.0235723
-0.0237107
-0.0239301
-0.0242224
-0.0245925
-0.0250558
-0.0256207
-0.0262618
-0.0269776
-0.0277543
-0.0285681
-0.0293915
-0.0301941
-0.0309457
-0.0316183
-0.0321894
-0.0326433
-0.0329719
-0.0331749
-0.0332582
-0.0332329
-0.0331133
-0.032915
-0.0326554
-0.032356
-0.0320284
-0.031582
-0.0308703
-0.0221854
-0.0223559
-0.0224295
-0.0226207
-0.0229005
-0.0232632
-0.0237161
-0.024277
-0.0249455
-0.0257041
-0.0265494
-0.0274641
-0.0284224
-0.0293938
-0.0303448
-0.0312415
-0.0320528
-0.0327534
-0.0333249
-0.0337577
-0.0340501
-0.0342076
-0.0342414
-0.0341662
-0.0339983
-0.0337568
-0.0334646
-0.0331349
-0.032669
-0.0318912
-0.0210436
-0.0211968
-0.02131
-0.0215561
-0.0218999
-0.0223365
-0.0228763
-0.0235376
-0.0243124
-0.025191
-0.0261662
-0.027218
-0.0283185
-0.0294347
-0.0305298
-0.0315671
-0.0325127
-0.0333384
-0.0340242
-0.0345588
-0.0349395
-0.0351714
-0.0352658
-0.0352376
-0.0351044
-0.0348854
-0.0346064
-0.0342797
-0.0337975
-0.0329592
-0.0199117
-0.0200514
-0.020206
-0.0205107
-0.0209228
-0.021437
-0.022068
-0.0228324
-0.0237171
-0.024718
-0.025824
-0.027013
-0.0282548
-0.0295137
-0.0307505
-0.0319255
-0.0330023
-0.0339506
-0.0347485
-0.0353834
-0.035852
-0.0361589
-0.0363153
-0.0363366
-0.0362409
-0.0360485
-0.0357873
-0.0354681
-0.0349716
-0.0340753
-0.0187835
-0.018913
-0.0191109
-0.0194776
-0.0199622
-0.0205593
-0.0212869
-0.022156
-0.0231549
-0.0242807
-0.0255194
-0.0268464
-0.0282296
-0.0296308
-0.0310082
-0.0323195
-0.0335261
-0.0345957
-0.0355049
-0.0362399
-0.0367966
-0.0371795
-0.0373996
-0.0374727
-0.0374173
-0.0372549
-0.037015
-0.0367074
-0.0361982
-0.0352422
-0.0176527
-0.0177738
-0.0180172
-0.0184508
-0.0190124
-0.0196971
-0.0205262
-0.0215031
-0.022621
-0.0238752
-0.0252489
-0.026716
-0.028242
-0.0297862
-0.0313043
-0.0327521
-0.0340885
-0.0352796
-0.0363004
-0.0371363
-0.0377824
-0.0382428
-0.0385286
-0.038656
-0.0386438
-0.0385144
-0.0382996
-0.0380076
-0.037486
-0.0364658
-0.0165129
-0.0166255
-0.0169162
-0.0174217
-0.0180651
-0.0188434
-0.0197791
-0.0208688
-0.0221106
-0.0234973
-0.0250097
-0.0266198
-0.0282909
-0.0299802
-0.0316408
-0.0332264
-0.034694
-0.0360081
-0.0371423
-0.0380809
-0.0388185
-0.0393589
-0.0397133
-0.0398979
-0.0399319
-0.0398389
-0.0396531
-0.0393803
-0.0388459
-0.0377543
-0.0153574
-0.0154576
-0.0157972
-0.0163799
-0.0171124
-0.017992
-0.0190383
-0.0202472
-0.0216188
-0.0231429
-0.0247987
-0.0265559
-0.028376
-0.0302135
-0.0320197
-0.0337459
-0.0353476
-0.0367875
-0.038038
-0.0390825
-0.0399148
-0.0405386
-0.040965
-0.0412104
-0.0412943
-0.0412414
-0.0410887
-0.0408388
-0.0402909
-0.0391195
-0.014178
-0.0142582
-0.0146482
-0.0153151
-0.0161447
-0.017134
-0.0182964
-0.0196319
-0.02114
-0.0228079
-0.0246128
-0.0265226
-0.0284965
-0.030487
-0.0324432
-0.0343145
-0.0360546
-0.0376246
-0.0389958
-0.0401506
-0.0410822
-0.0417939
-0.0422968
-0.0426072
-0.0427454
-0.0427371
-0.0426219
-0.0423989
-0.0418369
-0.0405763
-0.0129641
-0.0130131
-0.0134553
-0.0142142
-0.0151512
-0.0162587
-0.0175447
-0.0190157
-0.0206683
-0.0224875
-0.0244487
-0.026518
-0.0286522
-0.030802
-0.0329142
-0.0349365
-0.0368207
-0.0385268
-0.0400246
-0.0412956
-0.0423325
-0.043138
-0.0437231
-0.0441043
-0.0443018
-0.0443433
-0.0442714
-0.0440796
-0.0435029
-0.0421438
-0.0117006
-0.0117057
-0.0122007
-0.013063
-0.0141201
-0.0153534
-0.0167738
-0.0183902
-0.0201967
-0.0221763
-0.0243028
-0.02654
-0.0288428
-0.0311597
-0.0334357
-0.0356166
-0.0376528
-0.0395025
-0.0411346
-0.0425294
-0.0436791
-0.0445859
-0.0452605
-0.0457194
-0.045983
-0.0460809
-0.0460588
-0.0459038
-0.0453122
-0.0438458
-0.0103683
-0.0103165
-0.0108653
-0.0118438
-0.0130345
-0.0144038
-0.0159713
-0.0177451
-0.019717
-0.0218684
-0.0241709
-0.0265865
-0.0290681
-0.0315621
-0.0340116
-0.0363609
-0.0385585
-0.0405615
-0.0423374
-0.0438658
-0.0451377
-0.0461551
-0.0469284
-0.0474741
-0.0478124
-0.0479749
-0.0480103
-0.0478987
-0.0472924
-0.0457117
-0.00894277
-0.00881662
-0.00942322
-0.0105365
-0.0118735
-0.0133934
-0.0151224
-0.017068
-0.0192194
-0.0215561
-0.024048
-0.026655
-0.0293279
-0.0320113
-0.0346466
-0.0371761
-0.0395472
-0.0417155
-0.0436473
-0.045321
-0.0467271
-0.0478667
-0.04875
-0.0493932
-0.0498166
-0.0500539
-0.0501569
-0.0500973
-0.0494788
-0.0477787
-0.00738748
-0.0071766
-0.00784663
-0.00910891
-0.0106098
-0.0123
-0.0142087
-0.0163435
-0.0186915
-0.0212304
-0.0239281
-0.0267424
-0.0296223
-0.0325103
-0.0353463
-0.0380711
-0.0406304
-0.0429786
-0.045081
-0.0469149
-0.0484697
-0.049746
-0.0507534
-0.0515079
-0.0520298
-0.052355
-0.0525399
-0.0525418
-0.0519149
-0.0500936
-0.00565661
-0.00535086
-0.00609576
-0.0075243
-0.00921167
-0.0110953
-0.0132061
-0.0155516
-0.0181177
-0.0208798
-0.0238037
-0.0268452
-0.0299514
-0.033063
-0.0361183
-0.0390567
-0.0418225
-0.044369
-0.0466601
-0.0486723
-0.0503939
-0.0518248
-0.052974
-0.0538569
-0.0544939
-0.0549232
-0.0552048
-0.0552834
-0.0546558
-0.0527157
-0.00368563
-0.00327821
-0.00410982
-0.00573073
-0.0076352
-0.00974096
-0.0120822
-0.0146664
-0.0174777
-0.0204896
-0.0236654
-0.0269592
-0.0303159
-0.0336749
-0.0369727
-0.0401475
-0.0431425
-0.0459097
-0.0484122
-0.0506251
-0.0525361
-0.0541439
-0.055457
-0.0564901
-0.057264
-0.0578177
-0.0582163
-0.0583911
-0.0577752
-0.0557236
-0.00138033
-0.000868023
-0.00180748
-0.00365989
-0.00582107
-0.00818676
-0.0107947
-0.0136531
-0.0167448
-0.0200404
-0.0235014
-0.0270794
-0.0307177
-0.034354
-0.0379236
-0.0413635
-0.044616
-0.0476323
-0.0503742
-0.0528161
-0.0549444
-0.0567573
-0.058262
-0.0594725
-0.0604098
-0.0611152
-0.0616569
-0.0619521
-0.0613687
-0.0592217
0.00139541
0.0020007
0.000918313
-0.00121593
-0.00368525
-0.0063616
-0.0092843
-0.0124643
-0.0158825
-0.0195069
-0.0232963
-0.0272003
-0.0311604
-0.0351127
-0.0389917
-0.0427334
-0.0462796
-0.0495805
-0.0525975
-0.0553039
-0.0576853
-0.0597386
-0.0614704
-0.0628934
-0.0640288
-0.0649212
-0.0656395
-0.066086
-0.0655641
-0.0633517
0.00485878
0.00551829
0.0042299
0.00174331
-0.00110702
-0.00416159
-0.0074654
-0.011032
-0.0148402
-0.0188546
-0.0230312
-0.0273172
-0.0316525
-0.0359721
-0.0402096
-0.0443007
-0.048187
-0.0518188
-0.0551567
-0.0581734
-0.0608537
-0.0631934
-0.0651979
-0.0668788
-0.068257
-0.0693804
-0.070322
-0.0709631
-0.0705485
-0.068319
0.00934673
0.00996574
0.00837086
0.00542937
0.00210103
-0.00142897
-0.00521017
-0.0092576
-0.0135467
-0.0180382
-0.0226845
-0.0274304
-0.032214
-0.0369696
-0.041631
-0.0461344
-0.0504225
-0.0544457
-0.0581653
-0.0615536
-0.0645945
-0.0672826
-0.0696216
-0.0716215
-0.0733024
-0.0747143
-0.0759328
-0.0768259
-0.0765836
-0.0744186
0.0155042
0.0158562
0.01375
0.0101894
0.00622971
0.00207237
-0.00233411
-0.00700385
-0.011908
-0.0170023
-0.0222355
-0.0275496
-0.0328815
-0.0381656
-0.0433373
-0.0483352
-0.0531042
-0.0575976
-0.061778
-0.0656185
-0.0691028
-0.0722244
-0.0749854
-0.0773942
-0.0794694
-0.0812609
-0.0828443
-0.0840826
-0.0841474
-0.0822204
0.024336
0.0240007
0.0210801
0.0167009
0.0119068
0.00689174
0.00161241
-0.00393096
-0.00969655
-0.0156295
-0.0216703
-0.0277561
-0.0338221
-0.0398044
-0.0456417
-0.0512776
-0.0566624
-0.0617553
-0.0665218
-0.0709379
-0.0749883
-0.0786601
-0.0819518
-0.0848679
-0.087422
-0.0896572
-0.0916424
-0.0932596
-0.0937617
-0.0923638
0.0401741
0.0379972
0.0332273
0.0273382
0.0211033
0.0146242
0.00788581
0.000924716
-0.00619475
-0.0134047
-0.0206398
-0.0278377
-0.0349399
-0.0418938
-0.0486529
-0.0551776
-0.0614335
-0.0673898
-0.073023
-0.0783108
-0.0832353
-0.0877895
-0.091964
-0.0957523
-0.0991548
-0.102193
-0.104919
-0.107302
-0.108848
-0.108611
-0.032516
-0.0313011
-0.0294814
-0.0279322
-0.0265427
-0.0252041
-0.0238949
-0.0226101
-0.0213413
-0.020079
-0.0188128
-0.0175318
-0.0162233
-0.0148736
-0.0134672
-0.0119864
-0.010411
-0.00871703
-0.00687668
-0.00485609
-0.00261123
-8.85624e-05
0.00278185
0.00609313
0.00997563
0.0146141
0.0202515
0.0272693
0.0358265
0.0474547
-0.0280403
-0.0268118
-0.0254721
-0.0242885
-0.023174
-0.0220743
-0.0209794
-0.0198845
-0.0187821
-0.0176638
-0.0165215
-0.0153464
-0.0141292
-0.0128594
-0.011525
-0.0101116
-0.00860191
-0.00697456
-0.00520301
-0.0032533
-0.001081
0.00137151
0.00418178
0.00745618
0.0113457
0.0160682
0.0219346
0.0294485
0.0390962
0.0524075
-0.0252083
-0.0240938
-0.0229954
-0.0219746
-0.02096
-0.0199318
-0.0188907
-0.0178346
-0.0167574
-0.0156524
-0.0145123
-0.0133289
-0.0120933
-0.0107952
-0.00942257
-0.00796111
-0.00639338
-0.00469778
-0.0028471
-0.000806316
0.00147039
0.00404365
0.00699592
0.0104415
0.0145433
0.0195374
0.0257699
0.0337978
0.0442835
0.0588185
-0.0226714
-0.0216676
-0.0206833
-0.0197457
-0.0187998
-0.0178314
-0.0168394
-0.0158197
-0.0147658
-0.0136709
-0.0125276
-0.0113276
-0.0100618
-0.00871945
-0.00728803
-0.00575248
-0.00409437
-0.00229077
-0.000312783
0.00187674
0.0043262
0.00709976
0.0102844
0.0140001
0.0184167
0.0237789
0.0304445
0.038975
0.0501154
0.0654522
-0.0202974
-0.0193933
-0.0185043
-0.0176434
-0.0167623
-0.015847
-0.0148953
-0.0139027
-0.0128632
-0.0117704
-0.010617
-0.009395
-0.00809494
-0.0067059
-0.00521482
-0.00360588
-0.00185963
4.81783e-05
0.00214814
0.00447946
0.00709311
0.0100565
0.0134604
0.0174297
0.0221393
0.0278398
0.0348953
0.043868
0.0555789
0.0716343
-0.0181209
-0.0173088
-0.016504
-0.0157092
-0.0148806
-0.0140059
-0.0130829
-0.0121074
-0.0110741
-0.00997657
-0.00880793
-0.00756011
-0.00622371
-0.00478756
-0.00323824
-0.00155937
0.000269251
0.00227286
0.00448328
0.00694128
0.00969973
0.0128284
0.0164211
0.0206061
0.0255625
0.0315454
0.0389255
0.0482703
0.0604783
0.0772188
-0.0161541
-0.0154258
-0.0146945
-0.0139549
-0.0131684
-0.0123248
-0.0114222
-0.010457
-0.00942393
-0.0083172
-0.00713002
-0.00585445
-0.00448106
-0.00299857
-0.00139328
0.000351609
0.00225688
0.00434848
0.00665918
0.00923082
0.0121177
0.0153912
0.0191473
0.0235167
0.0286814
0.0349006
0.0425507
0.0522067
0.0648327
0.0821801
-0.0144072
-0.0137552
-0.0130877
-0.0123939
-0.0116409
-0.010821
-0.00993258
-0.00897247
-0.00793594
-0.00681743
-0.00561042
-0.00430708
-0.00289804
-0.00137188
0.000285308
0.00209065
0.00406536
0.00623596
0.00863589
0.0113078
0.014307
0.0177062
0.0216027
0.0261289
0.0314694
0.037886
0.0457601
0.0556742
0.0686462
0.086489
-0.0128914
-0.0123078
-0.0116948
-0.0110383
-0.0103117
-0.00950941
-0.00863049
-0.00767205
-0.00662982
-0.00549861
-0.00427211
-0.00294264
-0.00150084
6.47559e-05
0.00176824
0.00362699
0.00566255
0.00790185
0.0103788
0.0131368
0.0162317
0.0197372
0.0237515
0.0284085
0.0338943
0.0404727
0.0485295
0.0586533
0.0719126
0.090127
-0.0116144
-0.0110908
-0.0105231
-0.00989615
-0.00918974
-0.0084004
-0.0075275
-0.00656858
-0.00551979
-0.00437625
-0.00313187
-0.0017791
-0.000308589
0.00129117
0.00303437
0.00493858
0.0070256
0.00932264
0.011864
0.0146935
0.0178675
0.0214602
0.0255707
0.0303337
0.0359365
0.0426442
0.0508462
0.0611347
0.0746198
0.0931181
-0.0105783
-0.0101054
-0.00957402
-0.00896977
-0.00827844
-0.00749832
-0.00662908
-0.00566858
-0.00461335
-0.0034588
-0.00219902
-0.000826547
0.000667917
0.00229592
0.00407174
0.00601307
0.00814186
0.0104856
0.0130787
0.0159654
0.0192025
0.0228645
0.0270509
0.0318971
0.0375913
0.044399
0.0527126
0.0631245
0.0767786
0.0955044
-0.00977914
-0.00934673
-0.00884308
-0.00825551
-0.00757504
-0.00680127
-0.00593411
-0.00497169
-0.00391085
-0.00274722
-0.00147503
-8.69194e-05
0.0014264
0.0030765
0.0048777
0.00684777
0.00900879
0.0113883
0.0140212
0.0169516
0.0202366
0.0239512
0.028195
0.0331038
0.0388664
0.0457483
0.0541447
0.0646433
0.0784243
0.0973177
-0.00920651
-0.00880418
-0.00832017
-0.00774407
-0.00707094
-0.00630133
-0.00543525
-0.00447108
-0.00340587
-0.00223541
-0.000954049
0.000445528
0.00197258
0.00363869
0.00545821
0.00744897
0.00963311
0.0120383
0.0146995
0.0176611
0.0209802
0.024732
0.0290165
0.0339695
0.0397801
0.0467138
0.0551683
0.0657224
0.0796009
0.0985976
-0.00884486
-0.00846209
-0.00799039
-0.00742131
-0.00675261
-0.00598542
-0.00511983
-0.00415435
-0.00308619
-0.00191124
-0.000623925
0.000783048
0.00231892
0.00399527
0.00582649
0.00783043
0.0100293
0.0124508
0.01513
0.0181113
0.0214521
0.0252275
0.0295376
0.0345185
0.0403592
0.0473253
0.0558169
0.0664008
0.0803406
0.0994086
-0.00867464
-0.00830134
-0.00783547
-0.00726962
-0.00660293
-0.00583681
-0.00497136
-0.00400519
-0.00293556
-0.00175843
-0.00046823
0.000942301
0.00248241
0.00416366
0.00600048
0.00801071
0.0102166
0.0126459
0.0153337
0.0183244
0.0216756
0.0254623
0.0297847
0.034779
0.0406341
0.0476154
0.0561252
0.0667205
0.0806833
0.0998042
-0.00867383
-0.00830053
-0.00783466
-0.00726883
-0.00660216
-0.00583604
-0.00497061
-0.00400444
-0.00293483
-0.00175773
-0.000467554
0.000942951
0.00248303
0.00416426
0.00600103
0.00801123
0.0102171
0.0126464
0.0153341
0.0183248
0.021676
0.0254627
0.0297852
0.0347794
0.0406346
0.0476158
0.0561255
0.0667207
0.0806837
0.0998047
-0.00884243
-0.00845966
-0.00798799
-0.00741895
-0.00675029
-0.00598314
-0.00511759
-0.00415215
-0.00308405
-0.00190917
-0.00062192
0.000784976
0.00232077
0.00399703
0.00582815
0.00783199
0.0100308
0.0124522
0.0151313
0.0181125
0.0214533
0.0252288
0.029539
0.03452
0.0403607
0.0473266
0.0558178
0.0664015
0.0803418
0.0994103
-0.00920248
-0.00880015
-0.00831619
-0.00774016
-0.00706709
-0.00629755
-0.00543155
-0.00446745
-0.00340234
-0.00223199
-0.000950748
0.0004487
0.00197562
0.00364158
0.00546096
0.00745156
0.00963556
0.0120407
0.0147017
0.0176632
0.0209824
0.0247343
0.0290188
0.0339719
0.0397824
0.046716
0.05517
0.0657238
0.079603
0.0986003
-0.00977355
-0.00934114
-0.00883756
-0.00825009
-0.00756971
-0.00679605
-0.00592899
-0.00496669
-0.00390599
-0.00274251
-0.0014705
-8.25639e-05
0.00143057
0.00308048
0.0048815
0.00685139
0.00901223
0.0113916
0.0140243
0.0169547
0.0202397
0.0239543
0.0281981
0.033107
0.0388696
0.0457515
0.0541474
0.0646457
0.0784275
0.0973212
-0.0105712
-0.0100983
-0.00956701
-0.00896289
-0.00827169
-0.00749171
-0.00662261
-0.00566227
-0.00460722
-0.00345287
-0.00219331
-0.000821073
0.000673155
0.00230093
0.00407655
0.00601768
0.00814629
0.0104898
0.0130828
0.0159694
0.0192065
0.0228684
0.0270548
0.031901
0.0375953
0.0444033
0.0527168
0.0631284
0.076783
0.0955085
-0.0116058
-0.0110822
-0.0105147
-0.00988789
-0.00918164
-0.00839247
-0.00751976
-0.00656103
-0.00551246
-0.00436916
-0.00312505
-0.00177256
-0.000302334
0.00129716
0.00304014
0.00494416
0.00703099
0.00932787
0.0118691
0.0146984
0.0178724
0.021465
0.0255753
0.0303382
0.0359413
0.0426497
0.050852
0.0611403
0.0746254
0.0931225
-0.0128814
-0.0122979
-0.011685
-0.0110287
-0.0103023
-0.00950025
-0.00862154
-0.00766333
-0.00662135
-0.00549042
-0.00426423
-0.00293509
-0.0014936
7.1706e-05
0.00177494
0.00363349
0.00566888
0.00790804
0.0103849
0.0131427
0.0162375
0.0197427
0.0237567
0.0284136
0.0338999
0.0404795
0.0485373
0.0586607
0.0719197
0.0901317
-0.0143958
-0.0137438
-0.0130766
-0.012383
-0.0116303
-0.0108106
-0.0099225
-0.00896266
-0.00792641
-0.00680821
-0.00560152
-0.00429854
-0.00288984
-0.001364
0.000292913
0.00209804
0.0040726
0.00624308
0.00864287
0.0113146
0.0143136
0.0177124
0.0216085
0.0261347
0.0314759
0.0378943
0.0457699
0.0556834
0.0686539
0.0864942
-0.0161414
-0.0154133
-0.0146822
-0.0139429
-0.0131567
-0.0123134
-0.0114111
-0.0104461
-0.00941341
-0.008307
-0.00712016
-0.00584495
-0.00447193
-0.00298979
-0.0013848
0.000359859
0.00226497
0.00435646
0.00666702
0.00923846
0.012125
0.0153981
0.0191538
0.0235231
0.028689
0.0349105
0.0425624
0.0522176
0.0648408
0.0821857
-0.0181072
-0.0172951
-0.0164906
-0.0156961
-0.0148679
-0.0139935
-0.0130708
-0.0120957
-0.0110626
-0.00996545
-0.00879715
-0.0075497
-0.00621368
-0.0047779
-0.00322891
-0.0015503
0.000278149
0.00228163
0.00449192
0.00694968
0.00970777
0.012836
0.0164284
0.0206136
0.0255713
0.0315569
0.0389389
0.0482825
0.0604868
0.077224
-0.0202827
-0.0193788
-0.0184901
-0.0176295
-0.0167486
-0.0158337
-0.0148823
-0.01389
-0.0128509
-0.0117584
-0.0106054
-0.00938371
-0.00808404
-0.00669539
-0.00520468
-0.00359603
-0.00184998
5.76866e-05
0.0021575
0.00448858
0.00710187
0.0100648
0.0134686
0.0174383
0.0221495
0.0278528
0.0349101
0.043881
0.0555874
0.0716389
-0.0226561
-0.0216524
-0.0206683
-0.019731
-0.0187854
-0.0178173
-0.0168256
-0.0158062
-0.0147527
-0.0136581
-0.0125151
-0.0113155
-0.0100501
-0.00870812
-0.00727709
-0.00574187
-0.00408399
-0.00228056
-0.000302744
0.00188654
0.00433569
0.00710895
0.0102935
0.01401
0.0184283
0.0237932
0.03046
0.0389881
0.0501236
0.0654562
-0.0251925
-0.0240779
-0.0229798
-0.0219593
-0.0209449
-0.0199169
-0.0188762
-0.0178204
-0.0167435
-0.0156389
-0.014499
-0.013316
-0.0120808
-0.0107831
-0.00941082
-0.0079497
-0.00638224
-0.00468685
-0.00283638
-0.000795841
0.0014806
0.00405369
0.00700613
0.0104528
0.0145561
0.0195523
0.0257851
0.0338096
0.0442906
0.0588223
-0.0280241
-0.0267954
-0.0254558
-0.0242725
-0.0231583
-0.0220589
-0.0209642
-0.0198697
-0.0187675
-0.0176496
-0.0165076
-0.0153328
-0.014116
-0.0128466
-0.0115125
-0.0100995
-0.0085901
-0.00696304
-0.00519178
-0.00324235
-0.00107025
0.00138223
0.00419281
0.00746861
0.0113593
0.0160828
0.0219482
0.0294579
0.0391021
0.0524119
-0.0324986
-0.0312833
-0.0294641
-0.0279155
-0.0265264
-0.0251882
-0.0238794
-0.0225949
-0.0213265
-0.0200645
-0.0187988
-0.0175181
-0.01621
-0.0148606
-0.0134545
-0.0119742
-0.0103992
-0.00870571
-0.00686574
-0.00484545
-0.00260069
-7.78826e-05
0.00279292
0.00610607
0.00998926
0.014627
0.0202619
0.0272756
0.035831
0.0474598
0.0401806
0.0380046
0.0332337
0.027344
0.0211091
0.0146303
0.0078918
0.000930138
-0.00619029
-0.0134015
-0.0206382
-0.0278376
-0.0349415
-0.041897
-0.0486577
-0.0551837
-0.061441
-0.0673983
-0.0730324
-0.0783211
-0.0832462
-0.0878007
-0.0919754
-0.0957639
-0.0991665
-0.102205
-0.104931
-0.107315
-0.108861
-0.108626
0.0243403
0.0240041
0.0210838
0.0167057
0.011912
0.00689713
0.0016172
-0.00392714
-0.00969393
-0.0156282
-0.0216703
-0.0277575
-0.0338249
-0.0398084
-0.045647
-0.0512842
-0.0566701
-0.0617642
-0.0665317
-0.0709486
-0.0749997
-0.078672
-0.0819641
-0.0848803
-0.0874345
-0.0896697
-0.0916549
-0.0932721
-0.0937739
-0.0923761
0.0155097
0.0158622
0.0137566
0.0101964
0.00623621
0.002078
-0.00232977
-0.00700093
-0.0119065
-0.0170022
-0.0222366
-0.0275519
-0.0328849
-0.0381701
-0.0433429
-0.0483419
-0.0531121
-0.0576066
-0.0617882
-0.0656297
-0.0691151
-0.0722375
-0.0749993
-0.0774085
-0.0794839
-0.0812752
-0.0828582
-0.0840959
-0.0841599
-0.082232
0.00935558
0.0099746
0.00837897
0.00543646
0.00210645
-0.00142515
-0.00520799
-0.00925689
-0.0135473
-0.0180397
-0.0226869
-0.0274336
-0.032218
-0.0369745
-0.0416367
-0.0461412
-0.0504303
-0.0544548
-0.0581758
-0.0615654
-0.0646076
-0.067297
-0.0696371
-0.0716379
-0.0733192
-0.074731
-0.075949
-0.076841
-0.0765971
-0.07443
0.00486964
0.00552811
0.00423806
0.00174892
-0.00110377
-0.00416014
-0.00746559
-0.0110336
-0.0148428
-0.0188579
-0.023035
-0.0273215
-0.0316573
-0.0359774
-0.0402155
-0.0443075
-0.0481949
-0.0518279
-0.0551672
-0.0581854
-0.0608672
-0.0632084
-0.0652142
-0.0668962
-0.0682751
-0.0693987
-0.07034
-0.0709802
-0.0705637
-0.0683318
0.0014073
0.00201035
0.000925016
-0.00121226
-0.00368378
-0.00636213
-0.00928643
-0.0124676
-0.0158867
-0.0195116
-0.0233013
-0.0272055
-0.0311658
-0.0351185
-0.038998
-0.0427404
-0.0462875
-0.0495896
-0.0526079
-0.0553157
-0.0576986
-0.0597534
-0.0614865
-0.0629107
-0.0640469
-0.0649397
-0.0656581
-0.0661042
-0.065581
-0.0633669
-0.00136898
-0.000859421
-0.00180194
-0.00365652
-0.00582043
-0.0081882
-0.0107977
-0.0136573
-0.0167498
-0.020046
-0.0235071
-0.0270852
-0.0307236
-0.0343601
-0.03793
-0.0413705
-0.0446239
-0.0476412
-0.0503843
-0.0528274
-0.0549571
-0.0567712
-0.0582772
-0.0594888
-0.060427
-0.0611331
-0.0616752
-0.0619705
-0.0613866
-0.0592388
-0.00367613
-0.00327048
-0.00410433
-0.00572784
-0.0076347
-0.00974233
-0.0120852
-0.0146706
-0.0174829
-0.0204953
-0.0236714
-0.0269653
-0.0303221
-0.0336811
-0.0369792
-0.0401544
-0.0431501
-0.0459182
-0.0484217
-0.0506357
-0.0525478
-0.0541568
-0.0554709
-0.056505
-0.0572799
-0.0578345
-0.0582337
-0.0584089
-0.0577934
-0.0557419
-0.00564724
-0.00534276
-0.00608951
-0.00752073
-0.00921064
-0.0110962
-0.0132085
-0.0155554
-0.0181226
-0.0208853
-0.0238096
-0.0268512
-0.0299574
-0.0330691
-0.0361246
-0.0390632
-0.0418296
-0.0443768
-0.0466688
-0.0486819
-0.0504045
-0.0518364
-0.0529867
-0.0538705
-0.0545086
-0.0549389
-0.0552213
-0.0553005
-0.0546739
-0.0527344
-0.00737824
-0.00716846
-0.00784041
-0.00910455
-0.0106079
-0.0123002
-0.0142106
-0.0163468
-0.0186959
-0.0212355
-0.0239336
-0.0267481
-0.029628
-0.032516
-0.0353521
-0.0380771
-0.0406369
-0.0429857
-0.0450888
-0.0469234
-0.0484791
-0.0497563
-0.0507648
-0.0515203
-0.0520432
-0.0523696
-0.0525552
-0.0525584
-0.0519326
-0.050112
-0.0089333
-0.00880806
-0.0094165
-0.0105317
-0.0118707
-0.0133929
-0.0151236
-0.0170708
-0.0192233
-0.0215607
-0.0240531
-0.0266602
-0.0293332
-0.0320165
-0.0346519
-0.0371816
-0.039553
-0.0417217
-0.0436541
-0.0453285
-0.0467354
-0.0478759
-0.0487603
-0.0494046
-0.0498292
-0.0500677
-0.0501718
-0.0501133
-0.0494959
-0.0477967
-0.0103584
-0.0103074
-0.0108579
-0.0118386
-0.013031
-0.0144025
-0.0159718
-0.0177473
-0.0197204
-0.0218725
-0.0241755
-0.0265912
-0.0290728
-0.0315667
-0.0340163
-0.0363657
-0.0385636
-0.040567
-0.0423434
-0.0438724
-0.0451451
-0.0461634
-0.0469378
-0.0474846
-0.0478241
-0.0479876
-0.0480246
-0.0479143
-0.0473091
-0.0457292
-0.0116902
-0.0116961
-0.0121928
-0.0130571
-0.0141162
-0.0153513
-0.0167737
-0.0183918
-0.0201994
-0.0221799
-0.0243068
-0.026544
-0.0288468
-0.0311637
-0.0334397
-0.0356208
-0.0376572
-0.0395073
-0.0411398
-0.0425353
-0.0436857
-0.0445934
-0.0452691
-0.0457292
-0.0459941
-0.0460934
-0.0460727
-0.045919
-0.0453286
-0.0438627
-0.0129532
-0.0130029
-0.0134468
-0.0142079
-0.0151469
-0.0162562
-0.0175441
-0.0190166
-0.0206703
-0.0224902
-0.0244519
-0.0265212
-0.0286555
-0.0308052
-0.0329175
-0.03494
-0.0368246
-0.038531
-0.0400292
-0.0413008
-0.0423384
-0.0431449
-0.0437312
-0.0441136
-0.0443125
-0.0443556
-0.0442849
-0.0440943
-0.0435186
-0.0421601
-0.0141665
-0.0142475
-0.0146392
-0.0153081
-0.0161398
-0.017131
-0.0182949
-0.0196319
-0.0211411
-0.0228097
-0.024615
-0.026525
-0.028499
-0.0304896
-0.032446
-0.0343176
-0.0360579
-0.0376283
-0.039
-0.0401554
-0.0410878
-0.0418005
-0.0423045
-0.0426162
-0.0427558
-0.042749
-0.0426351
-0.0424133
-0.0418523
-0.0405921
-0.0153455
-0.0154464
-0.0157876
-0.0163722
-0.0171066
-0.0179881
-0.019036
-0.0202462
-0.0216188
-0.0231437
-0.0247999
-0.0265574
-0.0283777
-0.0302154
-0.0320219
-0.0337485
-0.0353506
-0.0367909
-0.038042
-0.0390871
-0.0399202
-0.040545
-0.0409725
-0.0412192
-0.0413045
-0.0412531
-0.0411017
-0.0408529
-0.0403059
-0.0391347
-0.0165006
-0.0166138
-0.016906
-0.0174132
-0.0180584
-0.0188384
-0.0197757
-0.0208666
-0.0221095
-0.0234969
-0.0250099
-0.0266204
-0.0282919
-0.0299815
-0.0316426
-0.0332285
-0.0346967
-0.0360113
-0.0371461
-0.0380853
-0.0388238
-0.0393652
-0.0397208
-0.0399067
-0.0399421
-0.0398504
-0.0396659
-0.0393942
-0.0388606
-0.0377691
-0.0176399
-0.0177615
-0.0180063
-0.0184415
-0.0190048
-0.0196909
-0.0205215
-0.0214997
-0.0226186
-0.0238736
-0.0252481
-0.0267157
-0.0282422
-0.0297869
-0.0313056
-0.0327539
-0.0340908
-0.0352826
-0.0363041
-0.0371408
-0.0377877
-0.0382492
-0.0385362
-0.0386648
-0.038654
-0.0385259
-0.0383124
-0.0380214
-0.0375005
-0.0364803
-0.0187703
-0.0189001
-0.0190992
-0.0194675
-0.0199537
-0.020552
-0.0212809
-0.0221513
-0.0231514
-0.0242781
-0.0255175
-0.0268452
-0.0282291
-0.029631
-0.031009
-0.032321
-0.0335283
-0.0345987
-0.0355086
-0.0362445
-0.0368022
-0.0371861
-0.0374074
-0.0374817
-0.0374276
-0.0372665
-0.0370278
-0.0367211
-0.0362126
-0.0352565
-0.0198981
-0.020038
-0.0201936
-0.0204997
-0.0209132
-0.0214287
-0.0220609
-0.0228266
-0.0237124
-0.0247142
-0.0258212
-0.0270109
-0.0282535
-0.0295133
-0.0307509
-0.0319267
-0.0330043
-0.0339535
-0.0347523
-0.0353882
-0.0358578
-0.0361658
-0.0363234
-0.0363459
-0.0362514
-0.0360601
-0.0358
-0.0354817
-0.0349858
-0.0340894
-0.0210295
-0.0211829
-0.0212971
-0.0215443
-0.021889
-0.022327
-0.022868
-0.0235306
-0.0243065
-0.0251861
-0.0261623
-0.0272151
-0.0283165
-0.0294336
-0.0305298
-0.031568
-0.0325146
-0.0333414
-0.0340282
-0.0345638
-0.0349456
-0.0351786
-0.0352741
-0.0352472
-0.035115
-0.034897
-0.034619
-0.0342933
-0.0338116
-0.0329733
-0.0221708
-0.0223416
-0.022416
-0.0226082
-0.0228888
-0.0232527
-0.0237068
-0.0242689
-0.0249385
-0.0256982
-0.0265446
-0.0274603
-0.0284196
-0.0293922
-0.0303443
-0.0312422
-0.0320547
-0.0327564
-0.0333291
-0.033763
-0.0340566
-0.0342152
-0.0342501
-0.034176
-0.0340092
-0.0337687
-0.0334774
-0.0331484
-0.032683
-0.0319052
-0.0233294
-0.0235205
-0.0235582
-0.0236975
-0.0239177
-0.0242109
-0.0245823
-0.0250466
-0.0256126
-0.0262548
-0.0269718
-0.0277496
-0.0285647
-0.0293893
-0.0301933
-0.0309461
-0.0316201
-0.0321925
-0.0326476
-0.0329775
-0.0331816
-0.0332661
-0.0332419
-0.0331233
-0.0329261
-0.0326673
-0.0323689
-0.0320419
-0.0315958
-0.0308842
-0.0245157
-0.0247263
-0.0247284
-0.0248173
-0.0249805
-0.0252071
-0.0255001
-0.0258699
-0.0263334
-0.0268609
-0.0274484
-0.0280866
-0.0287539
-0.0294259
-0.0300759
-0.0306773
-0.0312062
-0.0316435
-0.0319762
-0.0321987
-0.0323118
-0.0323221
-0.0322407
-0.0320813
-0.0318583
-0.0315868
-0.031287
-0.0309674
-0.0305462
-0.0299113
-0.0257438
-0.0259686
-0.0259346
-0.0259747
-0.0260818
-0.026245
-0.0264644
-0.0267444
-0.0271051
-0.0275211
-0.0279787
-0.0284746
-0.0289899
-0.029503
-0.0299914
-0.030433
-0.0308086
-0.0311032
-0.0313076