/*--------------------------------*- C++ -*----------------------------------*\
  =========                 |
  \\      /  F ield         | OpenFOAM: The Open Source CFD Toolbox
   \\    /   O peration     | Website:  https://openfoam.org
    \\  /    A nd           | Version:  12
     \\/     M anipulation  |
\*---------------------------------------------------------------------------*/
FoamFile
{
    format      ascii;
    class       volScalarField;
    location    "60";
    object      pPrime2Mean;
}
// * * * * * * * * * * * * * * * * * * * * * * * * * * * * * * * * * * * * * //

dimensions      [0 4 -4 0 0 0 0];

internalField   nonuniform List<scalar> 
6750
(
0.0198205
0.0197868
0.0197409
0.0197003
0.0196806
0.0198859
0.0198444
0.0197786
0.0196998
0.0196199
0.0200372
0.0199855
0.019899
0.0197869
0.0196671
0.0202727
0.0202173
0.0201238
0.0200006
0.0198689
0.0205823
0.020532
0.0204465
0.0203324
0.0202102
0.0209472
0.0209094
0.0208442
0.0207549
0.020659
0.0213429
0.0213233
0.0212876
0.0212349
0.0211775
0.0217439
0.0217461
0.0217459
0.0217373
0.0217271
0.0221261
0.0221518
0.0221896
0.0222287
0.02227
0.0224697
0.0225184
0.0225938
0.0226802
0.0227732
0.0227595
0.0228292
0.0229388
0.0230687
0.0232096
0.022986
0.0230733
0.0232116
0.0233782
0.0235601
0.0231448
0.0232455
0.0234055
0.0236001
0.0238134
0.023236
0.0233455
0.0235195
0.0237322
0.0239662
0.0232636
0.0233769
0.0235572
0.0237782
0.0240218
0.0232335
0.0233463
0.0235257
0.0237457
0.0239882
0.0231458
0.0232535
0.0234249
0.0236346
0.0238652
0.0229948
0.0230927
0.0232484
0.0234379
0.0236456
0.0227778
0.0228613
0.0229937
0.0231534
0.0233276
0.0224953
0.0225604
0.0226628
0.0227843
0.0229159
0.0221527
0.0221962
0.0222635
0.0223405
0.022423
0.0217604
0.0217805
0.0218098
0.0218389
0.0218691
0.021334
0.0213306
0.0213217
0.021303
0.0212815
0.0208941
0.020869
0.0208248
0.0207622
0.0206939
0.0204651
0.0204219
0.0203486
0.0202499
0.0201435
0.0200728
0.0200174
0.0199241
0.0198011
0.0196693
0.0197416
0.0196815
0.0195808
0.0194493
0.0193087
0.0194908
0.0194346
0.0193413
0.0192215
0.0190935
0.0193302
0.0192847
0.0192126
0.0191266
0.0190391
0.019261
0.0192241
0.0191731
0.0191268
0.0191021
0.0196719
0.0194865
0.0191324
0.018654
0.0180592
0.0173525
0.0165364
0.0156147
0.0145957
0.0134921
0.0123227
0.0111121
0.00988875
0.00868328
0.00752587
0.00644318
0.0054561
0.00457813
0.00381487
0.00316486
0.00262214
0.00217583
0.00181378
0.00152363
0.00129376
0.00111357
0.000974504
0.000869496
0.000793229
0.000748001
0.0196368
0.0193381
0.0189121
0.018378
0.0177373
0.0169932
0.0161512
0.0152195
0.0142088
0.0131321
0.0120076
0.0108571
0.00970415
0.00857357
0.00748911
0.00647154
0.00553734
0.00469741
0.00395733
0.00331761
0.00277329
0.00231775
0.00194161
0.00163491
0.0013879
0.00119192
0.001039
0.000921781
0.000833393
0.000770366
0.0195487
0.0191815
0.0187013
0.0181234
0.0174481
0.0166793
0.0158233
0.0148893
0.0138891
0.0128365
0.0117498
0.0106485
0.0095529
0.00848344
0.00745899
0.00649576
0.00560656
0.00480028
0.00408178
0.00345208
0.00290907
0.00244773
0.00206129
0.0017419
0.00148137
0.00127171
0.00110549
0.00097515
0.000873687
0.000795932
0.019437
0.0190259
0.0185033
0.0178923
0.0171957
0.0164155
0.015557
0.0146292
0.013644
0.0126154
0.0115608
0.010498
0.0094452
0.00841997
0.00743835
0.00651404
0.00565779
0.00487725
0.00417679
0.00355772
0.00301876
0.00255619
0.00216462
0.00183754
0.00156773
0.00134774
0.00116998
0.00102729
0.000912416
0.000824932
0.0193183
0.0188734
0.0183173
0.0176809
0.0169713
0.0161875
0.0153338
0.0144181
0.0134512
0.0124465
0.0114203
0.0103888
0.00936856
0.00837567
0.00742472
0.00652821
0.00569603
0.00493524
0.00424993
0.00364141
0.00310852
0.00264805
0.00225522
0.00192411
0.00164808
0.00141996
0.00123233
0.00107779
0.000951828
0.000856238
0.0192103
0.0187378
0.0181565
0.0175013
0.0167823
0.0159992
0.0151537
0.0142524
0.0133044
0.0123221
0.01132
0.010313
0.00931683
0.00834671
0.00741676
0.00653924
0.00572393
0.00497778
0.00430476
0.003706
0.00318014
0.00272387
0.00233239
0.00199986
0.00171983
0.00148545
0.00128934
0.0011248
0.000989455
0.000887254
0.019126
0.0186306
0.0180294
0.0173605
0.016635
0.015854
0.0150178
0.0141307
0.0132002
0.0122372
0.0112543
0.0102656
0.009286
0.00833057
0.00741362
0.0065478
0.00574327
0.00500724
0.00434365
0.00375339
0.00323468
0.00278368
0.00239515
0.00206297
0.00178065
0.00154162
0.00133878
0.00116613
0.00102297
0.000915308
0.0190757
0.0185604
0.0179429
0.017263
0.0165339
0.0157549
0.0149273
0.0140527
0.0131368
0.012189
0.0112202
0.0102435
0.00927354
0.00832565
0.00741474
0.00655428
0.00575518
0.00502508
0.00436804
0.00378464
0.00327253
0.00282712
0.00244244
0.00211187
0.00182883
0.00158634
0.0013784
0.00119968
0.00105011
0.000937872
0.0190689
0.0185356
0.0179033
0.0172135
0.0164813
0.0157042
0.0148835
0.0140186
0.0131138
0.0121763
0.0112158
0.0102448
0.00927788
0.0083309
0.00741973
0.00655892
0.00576032
0.00503219
0.00437874
0.00380026
0.00329372
0.00285369
0.00247333
0.00214535
0.00186289
0.00161869
0.00140737
0.00122382
0.00106893
0.000952675
0.0191151
0.0185642
0.0179169
0.0172167
0.0164807
0.015705
0.0148882
0.0140296
0.0131311
0.0121985
0.0112404
0.0102686
0.00929821
0.00834575
0.00742834
0.00656181
0.00575907
0.00502906
0.00437616
0.00380041
0.0032981
0.00286289
0.00248701
0.00216243
0.00188149
0.00163732
0.00142403
0.00123669
0.00107735
0.00095758
0.0192239
0.0186547
0.0179908
0.017278
0.016536
0.0157596
0.0149439
0.0140871
0.0131899
0.0122563
0.0112941
0.0103149
0.00933431
0.00837001
0.00744049
0.00656299
0.00575157
0.00501583
0.00436039
0.00378502
0.00328536
0.00285417
0.00248273
0.00216211
0.00188391
0.00164103
0.00142684
0.00123659
0.00107353
0.000950678
0.0194063
0.0188167
0.018133
0.0174041
0.0166526
0.015872
0.0150533
0.0141937
0.013292
0.012351
0.0113778
0.0103842
0.00938648
0.00840379
0.00745622
0.00656247
0.00573776
0.00499241
0.00433125
0.0037538
0.00325508
0.002827
0.00245983
0.00214366
0.00186906
0.00162857
0.0014142
0.00122178
0.00105579
0.000930378
0.0196748
0.0190613
0.0183537
0.0176037
0.0168386
0.016048
0.0152213
0.014353
0.0134404
0.0124848
0.0114931
0.0104776
0.00945545
0.00844752
0.00747569
0.00656022
0.00571749
0.00495851
0.00428837
0.00370634
0.0032068
0.00278081
0.00241763
0.00210613
0.00183568
0.00159783
0.00138437
0.00119064
0.0010227
0.00089543
0.020045
0.0194024
0.0186651
0.0178874
0.0171021
0.0162953
0.0154542
0.0145703
0.0136391
0.012661
0.0116425
0.0105968
0.00954229
0.00850183
0.00749919
0.00655623
0.00569049
0.00491371
0.00423122
0.00364208
0.00313999
0.00271508
0.00235542
0.0020485
0.00178267
0.00154795
0.00133604
0.001142
0.000973391
0.000845136
0.0205355
0.0198571
0.0190831
0.0182694
0.0174559
0.0166246
0.0157608
0.0148529
0.0138942
0.0128841
0.0118293
0.010744
0.00964846
0.00856758
0.00752712
0.0065505
0.00565646
0.00485748
0.00415917
0.00356036
0.00305401
0.00262911
0.00227239
0.00196998
0.00170883
0.00147775
0.00126831
0.00107525
0.000907617
0.00077964
0.0211703
0.020448
0.0196285
0.0187687
0.0179172
0.0170513
0.016154
0.0152111
0.0142134
0.0131598
0.0120576
0.010922
0.00977574
0.00864582
0.00755989
0.006543
0.00561506
0.00478934
0.00407163
0.00346045
0.002948
0.00252189
0.00216741
0.00186939
0.00161311
0.00138645
0.00118079
0.000990503
0.000826125
0.000700411
0.0219804
0.0212046
0.0203299
0.0194115
0.0185093
0.0175957
0.0166514
0.0156587
0.0146072
0.0134957
0.0123324
0.0111343
0.00992634
0.00873772
0.00759793
0.00653359
0.00556589
0.00470877
0.00396803
0.00334167
0.00282097
0.00239224
0.00203921
0.0017453
0.0014947
0.00127383
0.00107397
0.000889147
0.000731323
0.000610983
0.0230079
0.0221674
0.0212257
0.0202321
0.0192627
0.0182842
0.0172741
0.0162124
0.0150884
0.0139011
0.0126601
0.011385
0.0101027
0.00884446
0.00764153
0.00652213
0.00550856
0.0046152
0.00384768
0.00320322
0.00267204
0.0022392
0.001887
0.00159735
0.00135341
0.00114071
0.000949835
0.000774664
0.000628397
0.000518316
0.0243103
0.0233909
0.0223662
0.0212754
0.0202171
0.0191502
0.0180491
0.0168935
0.0156729
0.0143874
0.0130488
0.0116791
0.0103075
0.00896712
0.00769095
0.00650847
0.00544269
0.0045081
0.00370983
0.00304425
0.00250048
0.00206236
0.00171085
0.00142636
0.00119107
0.00099005
0.000813418
0.000654577
0.000527422
0.000434957
0.0259681
0.024949
0.023819
0.0226006
0.0214231
0.0202347
0.01901
0.0177281
0.0163801
0.0149684
0.0135075
0.0120219
0.0105434
0.00910683
0.00774644
0.00649249
0.00536804
0.00438709
0.00355403
0.00286434
0.00230618
0.00186234
0.00151253
0.00123583
0.00101343
0.000829869
0.000675575
0.000543761
0.000447079
0.000383208
0.0280937
0.0269438
0.0256773
0.0242892
0.0229469
0.0215925
0.0201996
0.0187488
0.0172338
0.0156603
0.0140463
0.0124194
0.0108135
0.00926487
0.00780839
0.00647413
0.00528434
0.00425192
0.00338021
0.00266384
0.00209022
0.00164141
0.00129622
0.0010327
0.000831005
0.000675469
0.000556624
0.000469602
0.000421301
0.000403128
0.0308444
0.0295169
0.0280695
0.0264494
0.0248793
0.0232963
0.0216741
0.019997
0.0182628
0.016482
0.014677
0.0128782
0.0111213
0.00944284
0.0078773
0.00645329
0.00519131
0.00410253
0.0031889
0.00244419
0.00185544
0.00140455
0.0010701
0.0008297
0.000662898
0.000554088
0.000494257
0.000481035
0.000509752
0.000565865
0.0344336
0.0328606
0.0311714
0.0292289
0.0273423
0.0254428
0.0235055
0.0215238
0.0195019
0.0174563
0.0154135
0.0134063
0.0114708
0.00964257
0.00795362
0.00642982
0.00508877
0.00393923
0.00298147
0.00220847
0.00160737
0.00116086
0.000848562
0.000648914
0.000541842
0.000512279
0.000551567
0.000661192
0.000811735
0.000989541
0.0391299
0.0372252
0.0352085
0.0328215
0.0304943
0.028153
0.025783
0.0233918
0.0209931
0.0186098
0.016272
0.0140129
0.0118668
0.00986577
0.00803752
0.00640325
0.00497644
0.00376267
0.00276032
0.00196187
0.00135533
0.000925625
0.000655591
0.000526986
0.000522276
0.00062718
0.000833037
0.00114371
0.00148184
0.00184919
0.0452459
0.042902
0.0404577
0.037469
0.0345316
0.0315732
0.0286121
0.0256741
0.0227846
0.0199731
0.0172704
0.0147075
0.0123133
0.0101134
0.00812825
0.0063722
0.00485313
0.00357283
0.00252788
0.00171099
0.00111249
0.000721784
0.000528147
0.000520634
0.000687753
0.00101698
0.0014948
0.00212067
0.00273359
0.00337153
0.0531066
0.0501907
0.0471931
0.0434021
0.0396288
0.0358372
0.0320893
0.028438
0.0249223
0.0215758
0.018427
0.0155
0.0128146
0.0103858
0.00822346
0.00633255
0.00471389
0.00336514
0.00228187
0.00145877
0.000891166
0.000576415
0.000514553
0.000706804
0.00115166
0.00183792
0.00273875
0.00383055
0.00482212
0.00582324
0.0628868
0.0592284
0.0554885
0.0506704
0.0458316
0.0409968
0.0362747
0.0317498
0.0274734
0.0234808
0.0197955
0.0164322
0.0133988
0.0106973
0.00832481
0.00627571
0.00454329
0.00312162
0.00200685
0.0011984
0.000700077
0.000520987
0.000675226
0.00117842
0.00203958
0.00324583
0.00474824
0.00647889
0.00799748
0.00947504
0.0752688
0.0703639
0.0654143
0.0593908
0.0533748
0.047404
0.0416062
0.0360835
0.0309015
0.0261059
0.0217253
0.0177736
0.0142534
0.0111581
0.0084762
0.00619443
0.0043013
0.00278969
0.00165854
0.000913435
0.000566133
0.000633288
0.00113336
0.00208116
0.00347945
0.00530581
0.00749991
0.00998646
0.0123422
0.0146628
0.0944661
0.0881439
0.08174
0.0743108
0.0668156
0.0592455
0.0517746
0.0445704
0.0377645
0.0314595
0.0257233
0.0205916
0.0160741
0.0121634
0.00884345
0.0060976
0.00391461
0.00229175
0.001237
0.000766119
0.000896677
0.00164088
0.00299506
0.00493021
0.0073857
0.0102599
0.0134224
0.0167969
0.019779
0.0228016
0.154156
0.142818
0.129924
0.116803
0.103712
0.090649
0.0779031
0.0657528
0.0544261
0.0441007
0.0348907
0.0268458
0.0199671
0.0142265
0.00958707
0.00602033
0.00351885
0.00210268
0.00181421
0.00270858
0.00483766
0.00822764
0.0128593
0.0186521
0.0254595
0.0330705
0.0412201
0.0498422
0.05872
0.0668012
0.0196684
0.0195765
0.0194849
0.0194052
0.0193405
0.0192939
0.0192722
0.0192836
0.0193367
0.019441
0.0196071
0.0198468
0.020174
0.0206058
0.0211627
0.0218705
0.0227627
0.0238847
0.0252993
0.0270954
0.0293986
0.0323857
0.0362954
0.0414215
0.0481001
0.0566963
0.0676026
0.081995
0.103745
0.166854
0.0195552
0.0194916
0.0194377
0.0193986
0.0193838
0.0193966
0.0194421
0.0195266
0.0196576
0.0198439
0.0200961
0.0204268
0.0208511
0.0213874
0.0220586
0.0228935
0.0239301
0.0252194
0.0268319
0.0288655
0.0314577
0.0347998
0.0391467
0.044809
0.052138
0.0615583
0.0737542
0.0901396
0.113762
0.180486
0.0196065
0.0196059
0.0196154
0.0196365
0.0196796
0.0197508
0.0198569
0.0200054
0.0202048
0.0204646
0.020796
0.0212125
0.0217301
0.0223689
0.0231537
0.0241163
0.0252991
0.0267585
0.028572
0.0308462
0.033729
0.0374248
0.0422027
0.0483848
0.0563307
0.0665212
0.0799032
0.0981135
0.123057
0.195612
0.0198309
0.0198945
0.0199674
0.0200506
0.020156
0.0202911
0.0204637
0.020682
0.0209552
0.0212939
0.0217101
0.0222185
0.0228364
0.0235852
0.0244919
0.0255911
0.0269285
0.0285652
0.0305833
0.0330945
0.0362519
0.0402643
0.0454023
0.0519792
0.0603365
0.0710027
0.0852759
0.105356
0.131213
0.211855
0.0202022
0.0203237
0.0204571
0.0206019
0.0207711
0.0209732
0.0212169
0.021511
0.0218654
0.0222913
0.0228019
0.0234125
0.0241421
0.0250135
0.0260558
0.0273063
0.028814
0.0306436
0.0328806
0.0356393
0.0390745
0.0433935
0.0488593
0.0557629
0.0644116
0.0753748
0.0903802
0.112509
0.138601
0.229028
0.0206856
0.0208578
0.0210472
0.0212521
0.0214851
0.0217555
0.0220728
0.0224464
0.022887
0.0234062
0.0240181
0.024739
0.0255889
0.0265922
0.0277796
0.029191
0.0308777
0.0329072
0.0353665
0.0383701
0.0420703
0.0466675
0.0524091
0.0595522
0.0683584
0.0794378
0.0950512
0.119658
0.145268
0.247773
0.0212421
0.0214584
0.0216987
0.0219608
0.0222563
0.0225949
0.0229864
0.0234409
0.0239697
0.0245851
0.0253018
0.0261369
0.0271111
0.0282503
0.0295867
0.0311617
0.0330286
0.0352558
0.0379306
0.0411653
0.0451068
0.0499446
0.0559049
0.063202
0.072041
0.0830703
0.0991833
0.126952
0.151397
0.26899
0.0218316
0.0220859
0.0223715
0.0226869
0.0230423
0.0234471
0.0239114
0.0244457
0.0250616
0.0257723
0.0265929
0.0275412
0.0286385
0.0299116
0.0313938
0.0331277
0.0351674
0.0375813
0.0404554
0.0438987
0.0480508
0.053089
0.0592153
0.0665942
0.0753629
0.086199
0.102694
0.134532
0.157241
0.293644
0.0224151
0.0227018
0.0230273
0.023391
0.0238019
0.0242691
0.0248023
0.0254125
0.0261115
0.0269128
0.027832
0.0288875
0.030101
0.0314999
0.0331182
0.034999
0.0371965
0.0397781
0.042828
0.0464512
0.0507803
0.0559805
0.06223
0.0696377
0.0782599
0.0887911
0.105521
0.142499
0.163107
0.322514
0.0229571
0.0232712
0.0236311
0.0240374
0.0244981
0.0250217
0.0256179
0.0262973
0.027072
0.0279557
0.0289643
0.0301163
0.0314342
0.0329454
0.0346844
0.0366941
0.0390281
0.0417528
0.0449503
0.0487218
0.0531938
0.058522
0.0648634
0.0722673
0.0806958
0.0908513
0.107643
0.150871
0.169313
0.355811
0.0234287
0.0237654
0.024154
0.0245966
0.0251001
0.0256726
0.0263234
0.0270629
0.0279031
0.0288579
0.0299432
0.0311777
0.0325843
0.0341905
0.0360304
0.0381468
0.0405924
0.0434326
0.0467476
0.0506353
0.0552178
0.0606446
0.0670565
0.0744417
0.0826565
0.0924118
0.109089
0.15954
0.176083
0.392727
0.0238088
0.0241634
0.0245749
0.0250468
0.0255852
0.0261975
0.0268928
0.0276813
0.0285747
0.0295869
0.0307339
0.0320347
0.0335119
0.035193
0.0371121
0.039311
0.0418422
0.04477
0.0481728
0.0521461
0.0568091
0.0623089
0.0687758
0.0761402
0.0841447
0.0935207
0.109937
0.168215
0.183413
0.430982
0.0240849
0.0244526
0.0248812
0.025375
0.0259395
0.0265818
0.0273104
0.0281353
0.0290683
0.0301231
0.0313157
0.0326652
0.0341939
0.0359293
0.037905
0.0401628
0.0427543
0.0457432
0.0492063
0.0532376
0.0579546
0.0635046
0.0700134
0.0773608
0.0851769
0.0942306
0.110304
0.176402
0.19095
0.466941
0.0242526
0.0246289
0.0250687
0.0255769
0.0261585
0.0268203
0.0275704
0.0284189
0.0293775
0.0304598
0.0316818
0.0330624
0.0346238
0.0363933
0.0384044
0.0406987
0.0433275
0.0463536
0.0498532
0.0539188
0.0586673
0.0642477
0.0707853
0.0781214
0.0857887
0.0946022
0.110325
0.183277
0.197804
0.496106
0.0243152
0.0246956
0.0251408
0.025656
0.0262458
0.0269168
0.0276772
0.0285368
0.0295074
0.0306027
0.0318385
0.0332335
0.0348099
0.0365951
0.0386225
0.0409337
0.0435797
0.0466231
0.0501395
0.0542208
0.0589839
0.0645791
0.0711333
0.0784673
0.0860536
0.0947396
0.110195
0.187228
0.202129
0.512722
0.024281
0.0246616
0.025107
0.0256223
0.026212
0.0268829
0.027643
0.0285023
0.0294725
0.0305673
0.0318024
0.0331965
0.034772
0.0365562
0.038583
0.0408938
0.0435399
0.0465838
0.0501011
0.0541838
0.0589489
0.0645471
0.0711052
0.078443
0.0860322
0.0947221
0.110156
0.187156
0.202077
0.513358
0.02415
0.0245268
0.0249672
0.0254758
0.0260574
0.0267189
0.0274685
0.0283161
0.0292736
0.0303545
0.0315746
0.0329527
0.0345114
0.0362784
0.0382876
0.040581
0.0432101
0.0462379
0.0497403
0.0538102
0.0585651
0.0641546
0.0707036
0.0780506
0.0857265
0.0945512
0.110217
0.183086
0.197669
0.49793
0.0239145
0.0242831
0.0247128
0.0252076
0.0257728
0.0264151
0.0271432
0.0279672
0.0288987
0.0299514
0.0311412
0.032487
0.0340117
0.0357434
0.0377163
0.0399728
0.0425652
0.045557
0.0490253
0.0530642
0.0577923
0.0633572
0.0698839
0.0772482
0.0850794
0.094151
0.11015
0.176157
0.190781
0.469719
0.0235728
0.0239288
0.0243421
0.0248159
0.0253558
0.0259691
0.0266646
0.0274524
0.0283444
0.0293541
0.0304977
0.0317942
0.0332666
0.0349433
0.0368591
0.0390568
0.0415894
0.0445215
0.0479318
0.0519163
0.0565948
0.0621145
0.0686041
0.0759901
0.0840173
0.0934203
0.10977
0.16799
0.183262
0.434448
0.0231308
0.0234695
0.0238606
0.0243062
0.0248125
0.0253871
0.026039
0.0267787
0.027618
0.0285705
0.0296523
0.0308824
0.032284
0.0338855
0.0357221
0.0378374
0.040285
0.0431309
0.0464556
0.0503575
0.054959
0.060409
0.066846
0.0742565
0.0825039
0.0923004
0.108947
0.159401
0.175991
0.396645
0.0226025
0.0229193
0.0232826
0.0236931
0.0241578
0.0246848
0.0252835
0.0259643
0.026739
0.0276212
0.0286268
0.0297747
0.0310878
0.0325947
0.0343307
0.0363396
0.0386762
0.0414075
0.0446162
0.0484039
0.0528968
0.0582492
0.0646162
0.0720486
0.0805222
0.0907412
0.107563
0.150865
0.169315
0.359974
0.0220099
0.0223003
0.0226304
0.0229996
0.0234158
0.0238878
0.024425
0.0250381
0.0257385
0.0265396
0.0274569
0.028509
0.0297185
0.0311136
0.0327293
0.0346099
0.0368104
0.039399
0.0424606
0.0461004
0.05045
0.0556732
0.0619471
0.0693874
0.0780704
0.0886967
0.105533
0.142649
0.163233
0.326764
0.0213825
0.0216421
0.0219337
0.022256
0.0226182
0.0230293
0.0234992
0.024038
0.0246571
0.0253693
0.0261896
0.027136
0.0282304
0.0295003
0.0309803
0.0327141
0.0347568
0.0371775
0.0400626
0.0435211
0.0476914
0.0527494
0.0588983
0.066315
0.0751637
0.0861349
0.102817
0.134841
0.157514
0.297879
0.020756
0.0209795
0.0212276
0.0214984
0.0218023
0.0221488
0.0225475
0.0230083
0.0235421
0.0241611
0.0248794
0.0257144
0.026687
0.0278236
0.0291576
0.030732
0.0326014
0.0348344
0.0375186
0.0407659
0.0447216
0.0495751
0.0555565
0.0628983
0.0718397
0.0830491
0.0994241
0.127409
0.151843
0.273161
0.0201691
0.0203509
0.0205502
0.0207656
0.0210086
0.0212884
0.0216145
0.021996
0.0224434
0.0229681
0.0235836
0.0243059
0.0251551
0.0261561
0.0273409
0.0287509
0.0304389
0.0324727
0.0349392
0.037952
0.0416622
0.0462712
0.0520337
0.0592305
0.0681634
0.0794684
0.0954043
0.120249
0.145914
0.251883
0.0196619
0.0197952
0.0199406
0.0200974
0.0202779
0.0204906
0.0207441
0.0210472
0.0214096
0.0218422
0.0223575
0.0229706
0.0236999
0.024569
0.0256082
0.0268565
0.0283644
0.0301969
0.0324389
0.0352038
0.0386457
0.0429744
0.0484634
0.0554317
0.0642316
0.0754614
0.0908345
0.113222
0.139478
0.23312
0.019273
0.0193505
0.0194371
0.0195332
0.0196504
0.0197962
0.0199785
0.0202056
0.0204867
0.0208319
0.0212529
0.0217635
0.0223811
0.0231274
0.0240306
0.0251271
0.0264641
0.028103
0.0301249
0.0326406
0.0358038
0.0398272
0.0449945
0.0516497
0.060181
0.0711468
0.0858184
0.106184
0.132349
0.215999
0.0190366
0.019052
0.0190763
0.0191102
0.019164
0.0192442
0.0193583
0.0195137
0.0197189
0.0199832
0.0203175
0.0207349
0.0212514
0.0218873
0.0226687
0.0236289
0.0248115
0.0262734
0.0280911
0.0303709
0.0332625
0.0369757
0.0417945
0.0480724
0.0562127
0.0667253
0.0805232
0.0990581
0.124479
0.199886
0.018979
0.0189332
0.0188936
0.0188654
0.0188584
0.0188768
0.0189263
0.0190136
0.0191461
0.0193329
0.0195845
0.0199135
0.0203352
0.0208684
0.021537
0.0223709
0.0234088
0.0247025
0.0263221
0.0283661
0.0309748
0.0343458
0.0387487
0.0445238
0.052059
0.0618035
0.0744135
0.0911639
0.115409
0.18487
0.0190973
0.019021
0.0189387
0.0188646
0.0188026
0.0187564
0.0187331
0.0187412
0.01879
0.0188893
0.0190499
0.0192842
0.0196067
0.020035
0.0205903
0.0212989
0.0221946
0.0233234
0.0247495
0.0265633
0.0288931
0.0319219
0.0359017
0.0411535
0.0480396
0.056947
0.0682554
0.0830546
0.105534
0.17132
0.15857
0.147035
0.133763
0.12016
0.106567
0.093027
0.0798482
0.0673203
0.0556756
0.045092
0.0356801
0.0274843
0.0204994
0.0146912
0.0100172
0.00644506
0.00396421
0.00259326
0.00237349
0.00335878
0.00559895
0.00911608
0.0138836
0.0198097
0.0267336
0.0344273
0.0426112
0.0512113
0.0600037
0.0679867
0.0963353
0.0900617
0.0835825
0.0759485
0.0682125
0.0604081
0.0527273
0.0453475
0.0384023
0.031992
0.0261794
0.0209949
0.0164432
0.0125124
0.00918323
0.00643595
0.00425686
0.00264039
0.00159219
0.00112601
0.00125754
0.00199746
0.00334082
0.00525737
0.00768534
0.0105212
0.0136352
0.0169562
0.0198516
0.0228315
0.0763774
0.0715542
0.0666153
0.0605104
0.0543677
0.0482591
0.0423294
0.0366915
0.0314158
0.0265482
0.0221149
0.0181264
0.0145816
0.0114708
0.00877927
0.00649095
0.00459126
0.0030696
0.00192123
0.00114806
0.000758928
0.000768933
0.00119686
0.00205985
0.00336499
0.00509546
0.00719917
0.00961163
0.0118988
0.0142002
0.0635454
0.0599333
0.0561998
0.0513321
0.0464243
0.0415204
0.0367357
0.0321582
0.0278402
0.0238163
0.0201087
0.0167304
0.0136878
0.0109811
0.00860583
0.00655448
0.0048179
0.00338707
0.00225457
0.00141644
0.000874455
0.000638069
0.000724718
0.00115572
0.00194637
0.00308887
0.00453736
0.00622621
0.00772327
0.00920174
0.0533607
0.0504632
0.0474585
0.0436422
0.0398501
0.0360515
0.0323048
0.0286589
0.0251498
0.0218094
0.0186659
0.0157434
0.0130621
0.010637
0.00847755
0.00658787
0.00496701
0.00361014
0.00250991
0.00165855
0.00105046
0.000684847
0.000566694
0.000704288
0.00110292
0.00175542
0.0026346
0.00371246
0.00470148
0.00570206
0.0451964
0.0428588
0.0404057
0.0374125
0.0344891
0.0315643
0.0286457
0.0257515
0.0229015
0.0201226
0.017445
0.0149006
0.0125199
0.0103295
0.00835041
0.00659672
0.00507508
0.00378552
0.00272279
0.00187841
0.00124316
0.000809095
0.000570326
0.000521799
0.000657096
0.000966353
0.00143527
0.00205889
0.00267588
0.00331504
0.0388757
0.0369781
0.0349597
0.0325851
0.03029
0.0279998
0.0256909
0.0233628
0.021022
0.0186877
0.0163884
0.0141582
0.0120327
0.0100458
0.00822614
0.00659487
0.00516485
0.00394071
0.00292016
0.00209589
0.00145745
0.000992703
0.000688371
0.000530076
0.000503094
0.000594439
0.000795071
0.00110702
0.00145328
0.00182918
0.0340499
0.0324895
0.0308079
0.0288879
0.0270404
0.0251973
0.0233265
0.0214146
0.019459
0.0174715
0.0154761
0.0135054
0.0115966
0.00978694
0.00810938
0.00659001
0.00524617
0.0040864
0.00311138
0.00231538
0.00168778
0.00121413
0.000876908
0.000656697
0.000534461
0.000495283
0.000530219
0.000640406
0.000798389
0.000986676
0.0303826
0.02907
0.0276361
0.0260427
0.0245136
0.0229868
0.0214306
0.0198242
0.0181592
0.0164413
0.0146893
0.0129328
0.0112079
0.00955253
0.00800184
0.00658472
0.00532168
0.00422424
0.00329552
0.00253133
0.00192132
0.00145007
0.00109821
0.000844379
0.000668048
0.000552862
0.000489235
0.000474642
0.000506768
0.000569658
0.027581
0.0264454
0.0251949
0.0238367
0.0225345
0.0212339
0.0199044
0.0185228
0.0170773
0.0155689
0.0140118
0.0124318
0.0108626
0.00934132
0.00790353
0.0065794
0.00539129
0.00435285
0.00346903
0.00273694
0.00214681
0.00168321
0.00132648
0.00105503
0.000848295
0.000689261
0.000567384
0.000477109
0.000427776
0.000411098
0.0254204
0.0244134
0.0233
0.0221109
0.0209728
0.0198357
0.0186715
0.0174563
0.016177
0.0148312
0.0134297
0.0119946
0.0105569
0.00915176
0.00781393
0.00657367
0.00545419
0.00447041
0.00362863
0.002927
0.00235655
0.00190248
0.00154573
0.00126537
0.00104144
0.000856727
0.000700031
0.000563792
0.000462609
0.000395736
0.0237373
0.0228268
0.0218181
0.0207556
0.0197357
0.0187174
0.0176741
0.0165827
0.015429
0.0142092
0.0129313
0.0116147
0.0102875
0.00898237
0.00773239
0.00656704
0.00550959
0.00457553
0.00377201
0.00309818
0.00254595
0.00210145
0.00174672
0.00146189
0.00122781
0.00102753
0.000848999
0.000685068
0.000551101
0.00045243
0.0224165
0.0215808
0.0206536
0.0196869
0.0187543
0.0178235
0.0168689
0.015869
0.0148097
0.0136866
0.0125064
0.0112862
0.0100514
0.00883186
0.00765838
0.00655916
0.00555695
0.00466734
0.00389799
0.00324881
0.00271268
0.0022768
0.00192446
0.00163707
0.00139629
0.00118549
0.000993413
0.000813065
0.000658841
0.000540651
0.0213769
0.0206012
0.0197392
0.0188464
0.0179799
0.0171124
0.0162221
0.0152886
0.014299
0.0132497
0.0121464
0.0110044
0.00984625
0.00869914
0.00759151
0.00654989
0.00559618
0.00474567
0.00400629
0.00337851
0.00285611
0.00242732
0.00207661
0.00178683
0.00154062
0.00132258
0.00112224
0.000932741
0.000766953
0.000637834
0.0205597
0.0198337
0.0190254
0.0181904
0.0173733
0.0165513
0.0157061
0.0148195
0.0138807
0.012887
0.0118438
0.0107647
0.00966964
0.00858319
0.00753148
0.00653934
0.00562755
0.00481094
0.0040974
0.00348782
0.00297668
0.00255313
0.0022029
0.00191021
0.00165904
0.00143579
0.00123044
0.00103659
0.000865391
0.000731487
0.0199223
0.0192382
0.0184743
0.0176841
0.0169033
0.0161132
0.0152979
0.0144435
0.013541
0.0125888
0.0115923
0.0105632
0.00951933
0.00848295
0.00747807
0.00652779
0.0056517
0.00486397
0.0041723
0.0035778
0.00307544
0.00265531
0.00230426
0.00200792
0.00175216
0.00152489
0.00131665
0.00112164
0.000949213
0.000814764
0.0194331
0.018784
0.0180558
0.0172999
0.0165448
0.0157757
0.0149794
0.0141461
0.013269
0.0123474
0.0113862
0.0103961
0.00939311
0.00839739
0.00743105
0.00651559
0.00566936
0.00490576
0.00423215
0.00364967
0.00315377
0.00273532
0.00238237
0.002082
0.00182186
0.00159134
0.00138162
0.00118742
0.00101638
0.000883887
0.0190673
0.018447
0.017747
0.0170162
0.0162783
0.015522
0.0147371
0.0139166
0.0130563
0.0121561
0.0112208
0.0102602
0.00928888
0.00832542
0.00739019
0.00650309
0.00568127
0.0049373
0.00427809
0.00370473
0.00321304
0.00279476
0.00243916
0.00213475
0.00187042
0.00163726
0.00142692
0.00123463
0.00106639
0.000936999
0.0188051
0.0182082
0.0175301
0.0168171
0.0160897
0.0153403
0.0145609
0.013747
0.0128963
0.0120097
0.0110919
0.0101524
0.00920473
0.00826605
0.00735517
0.00649053
0.00568805
0.00495942
0.0043111
0.00374408
0.00325456
0.00283512
0.00247624
0.00216773
0.00189979
0.00166456
0.00145406
0.00126425
0.00109956
0.0009737
0.0186301
0.0180522
0.0173913
0.016691
0.0159692
0.0152222
0.0144439
0.0136314
0.0127842
0.0119041
0.0109964
0.0100704
0.00913905
0.00821837
0.0073257
0.00647805
0.00569013
0.00497277
0.00433194
0.0037686
0.00327934
0.00285758
0.00249495
0.00218248
0.0019114
0.0016742
0.00146446
0.00127754
0.0011168
0.00099467
0.0185289
0.0179672
0.0173203
0.0166296
0.0159106
0.0151624
0.0143813
0.0135655
0.012716
0.0118361
0.0109317
0.0100123
0.00909066
0.00818169
0.00730147
0.00646565
0.00568777
0.00497775
0.00434114
0.00377889
0.00328808
0.00286296
0.00249621
0.00217992
0.00190636
0.00166822
0.00145973
0.00127607
0.00111956
0.00100122
0.0184902
0.0179438
0.0173092
0.0166261
0.0159088
0.0151568
0.0143695
0.0135462
0.0126893
0.0118035
0.0108961
0.00997705
0.00905878
0.00815554
0.00728225
0.00645328
0.00568101
0.00497454
0.00433896
0.00377534
0.00328126
0.00285183
0.0024807
0.00216091
0.00188568
0.00164755
0.00144117
0.00126144
0.00110959
0.000995198
0.0185037
0.0179733
0.0173508
0.0166751
0.015959
0.0152025
0.014406
0.0135714
0.0127022
0.0118053
0.010889
0.00996411
0.00904315
0.00813978
0.00726792
0.00644079
0.00566971
0.00496301
0.00432541
0.00375808
0.00325918
0.00282465
0.00244908
0.00212632
0.00184998
0.00161332
0.00141036
0.00123532
0.00108885
0.000978657
0.0185595
0.0180472
0.0174387
0.0167716
0.0160572
0.0152958
0.0144885
0.0136394
0.0127539
0.0118408
0.0109103
0.00997377
0.00904411
0.00813463
0.00725848
0.00642796
0.00565348
0.00494273
0.00430014
0.00372699
0.00322198
0.00278188
0.00240205
0.002077
0.00180062
0.00156683
0.00136842
0.00119963
0.00105949
0.000953897
0.0186472
0.018157
0.0175669
0.0169113
0.0162007
0.0154341
0.0146149
0.0137491
0.0128442
0.0119108
0.010961
0.0100073
0.00906273
0.00814076
0.00725411
0.00641447
0.00563163
0.00491284
0.00426236
0.00368158
0.00316968
0.00272403
0.00234059
0.00201428
0.00173927
0.00150921
0.00131717
0.00115619
0.0010236
0.000923469
0.0187563
0.0182936
0.0177279
0.0170893
0.0163844
0.0156142
0.0147833
0.0138999
0.0129739
0.012017
0.0110436
0.0100671
0.00910109
0.00815948
0.00725519
0.00639984
0.00560304
0.00487192
0.00421071
0.00362091
0.00310194
0.00265154
0.00226581
0.00193976
0.00166759
0.00144281
0.00125847
0.00110708
0.000983587
0.000890092
0.0188737
0.0184461
0.0179129
0.0172972
0.0166024
0.0158317
0.0149917
0.0140922
0.0131453
0.0121635
0.0111626
0.0101575
0.00916273
0.00819305
0.00726249
0.0063834
0.00556595
0.00481763
0.00414287
0.00354315
0.00301787
0.0025645
0.0021788
0.00185531
0.00158793
0.00137001
0.0011943
0.00105388
0.000941973
0.000856718
0.018983
0.0186013
0.01811
0.0175238
0.0168457
0.0160812
0.0152384
0.0143278
0.0133628
0.0123565
0.0113253
0.0102855
0.00925327
0.00824513
0.00727732
0.00636426
0.00551785
0.00474662
0.00405542
0.00344563
0.0029159
0.00246261
0.00208041
0.00176278
0.00150292
0.00129382
0.00112845
0.000999738
0.000900772
0.000826113
0.0190707
0.0187593
0.0183202
0.0177734
0.0171238
0.0163774
0.0155419
0.0146279
0.0136489
0.0126185
0.0115525
0.0104687
0.00938582
0.0083237
0.00730248
0.00634065
0.00545347
0.00465142
0.00394011
0.0033207
0.00278919
0.00234031
0.00196643
0.00165936
0.00141114
0.00121411
0.00106075
0.000944462
0.000858397
0.000798739
0.0191164
0.0189151
0.0185408
0.0180419
0.0174299
0.0167117
0.015895
0.0149876
0.0139997
0.0129448
0.0118385
0.0107007
0.00955426
0.00842405
0.00733589
0.00631373
0.00537707
0.00453901
0.00380546
0.00317596
0.00264578
0.00220533
0.00184434
0.00155238
0.00131931
0.00113606
0.000995209
0.000890128
0.000815436
0.000773427
0.0763288
0.0274135
0.017674
0.0114297