/*--------------------------------*- C++ -*----------------------------------*\
  =========                 |
  \\      /  F ield         | OpenFOAM: The Open Source CFD Toolbox
   \\    /   O peration     | Website:  https://openfoam.org
    \\  /    A nd           | Version:  12
     \\/     M anipulation  |
\*---------------------------------------------------------------------------*/
FoamFile
{
    format      ascii;
    class       volVectorField;
    location    "60";
    object      U;
}
// * * * * * * * * * * * * * * * * * * * * * * * * * * * * * * * * * * * * * //

dimensions      [0 1 -1 0 0 0 0];

internalField   nonuniform List<vector> 
6750
(
(0.200069 -0.00323795 0)
(0.200355 -0.00991806 0)
(0.200638 -0.0160669 0)
(0.200883 -0.0217476 0)
(0.200753 -0.0270536 0)
(0.200037 -0.00361444 0)
(0.20028 -0.0105091 0)
(0.200478 -0.01658 0)
(0.200547 -0.0219639 0)
(0.200415 -0.0267456 0)
(0.200026 -0.00377748 0)
(0.200123 -0.0107301 0)
(0.200127 -0.0166613 0)
(0.199987 -0.0217454 0)
(0.199722 -0.0260786 0)
(0.20001 -0.00380684 0)
(0.199949 -0.0106631 0)
(0.199751 -0.0163868 0)
(0.199421 -0.0211907 0)
(0.199019 -0.0252089 0)
(0.199995 -0.00373182 0)
(0.199787 -0.0103581 0)
(0.199399 -0.0158157 0)
(0.198883 -0.0203455 0)
(0.198327 -0.0241074 0)
(0.199983 -0.00357069 0)
(0.199641 -0.00985141 0)
(0.199068 -0.0149835 0)
(0.198364 -0.0192202 0)
(0.197635 -0.0227314 0)
(0.199972 -0.00333852 0)
(0.199504 -0.00917206 0)
(0.198752 -0.013917 0)
(0.197854 -0.0178259 0)
(0.196939 -0.0210662 0)
(0.199963 -0.00304686 0)
(0.199374 -0.00834415 0)
(0.198448 -0.0126419 0)
(0.197357 -0.016181 0)
(0.19625 -0.0191191 0)
(0.199955 -0.00270578 0)
(0.199253 -0.0073914 0)
(0.198162 -0.0111876 0)
(0.196886 -0.0143153 0)
(0.195589 -0.0169172 0)
(0.199947 -0.00232539 0)
(0.199144 -0.0063395 0)
(0.197902 -0.00958952 0)
(0.196458 -0.0122699 0)
(0.194984 -0.0145041 0)
(0.199941 -0.00191638 0)
(0.199051 -0.00521622 0)
(0.197679 -0.00788771 0)
(0.196088 -0.0100932 0)
(0.19446 -0.011935 0)
(0.199936 -0.00148969 0)
(0.198976 -0.00405007 0)
(0.197499 -0.00612401 0)
(0.195789 -0.00783749 0)
(0.194034 -0.00927053 0)
(0.199933 -0.00105591 0)
(0.198921 -0.0028687 0)
(0.197366 -0.0043393 0)
(0.195567 -0.00555426 0)
(0.193718 -0.00657124 0)
(0.199929 -0.000624459 0)
(0.198889 -0.00169748 0)
(0.197282 -0.00257058 0)
(0.195426 -0.00329034 0)
(0.193514 -0.00389296 0)
(0.199919 -0.000207373 0)
(0.198884 -0.000556383 0)
(0.197244 -0.000847176 0)
(0.19536 -0.00108469 0)
(0.193418 -0.00128334 0)
(0.199919 0.000206973 0)
(0.198884 0.000555267 0)
(0.197244 0.000845446 0)
(0.19536 0.00108245 0)
(0.193418 0.00128067 0)
(0.199929 0.000624059 0)
(0.198889 0.00169636 0)
(0.197282 0.00256885 0)
(0.195426 0.0032881 0)
(0.193514 0.00389029 0)
(0.199933 0.00105551 0)
(0.198921 0.00286758 0)
(0.197366 0.00433758 0)
(0.195567 0.00555203 0)
(0.193718 0.00656858 0)
(0.199936 0.0014893 0)
(0.198976 0.00404896 0)
(0.197499 0.00612229 0)
(0.195789 0.00783527 0)
(0.194034 0.00926788 0)
(0.199941 0.00191598 0)
(0.199051 0.00521512 0)
(0.197679 0.00788601 0)
(0.196088 0.010091 0)
(0.194459 0.0119324 0)
(0.199947 0.002325 0)
(0.199144 0.00633841 0)
(0.197902 0.00958783 0)
(0.196458 0.0122677 0)
(0.194984 0.0145015 0)
(0.199955 0.00270539 0)
(0.199253 0.00739032 0)
(0.198162 0.0111859 0)
(0.196886 0.0143132 0)
(0.195589 0.0169146 0)
(0.199963 0.00304649 0)
(0.199374 0.00834308 0)
(0.198448 0.0126402 0)
(0.197357 0.0161788 0)
(0.19625 0.0191166 0)
(0.199972 0.00333814 0)
(0.199504 0.009171 0)
(0.198752 0.0139154 0)
(0.197854 0.0178238 0)
(0.196939 0.0210637 0)
(0.199983 0.00357033 0)
(0.199641 0.00985036 0)
(0.199068 0.0149818 0)
(0.198364 0.0192181 0)
(0.197635 0.0227288 0)
(0.199995 0.00373146 0)
(0.199787 0.010357 0)
(0.199399 0.015814 0)
(0.198883 0.0203433 0)
(0.198327 0.0241049 0)
(0.20001 0.00380649 0)
(0.199949 0.0106621 0)
(0.199751 0.0163852 0)
(0.199421 0.0211886 0)
(0.199019 0.0252064 0)
(0.200026 0.00377714 0)
(0.200123 0.0107291 0)
(0.200127 0.0166597 0)
(0.199987 0.0217433 0)
(0.199722 0.026076 0)
(0.200037 0.00361412 0)
(0.20028 0.0105081 0)
(0.200478 0.0165784 0)
(0.200547 0.0219618 0)
(0.200415 0.0267429 0)
(0.200069 0.00323765 0)
(0.200355 0.00991712 0)
(0.200638 0.0160654 0)
(0.200883 0.0217455 0)
(0.200753 0.0270509 0)
(0.19861 -0.0388776 0)
(0.196917 -0.0444122 0)
(0.195503 -0.0494131 0)
(0.194557 -0.0538288 -3.9717e-23)
(0.193929 -0.0575511 0)
(0.193554 -0.0605242 0)
(0.193418 -0.0626884 1.9055e-21)
(0.193507 -0.0639576 -1.92235e-21)
(0.193793 -0.0642291 -9.03433e-24)
(0.194198 -0.0634738 -6.10829e-22)
(0.194709 -0.0614752 3.89131e-23)
(0.195232 -0.0581903 1.32165e-23)
(0.195693 -0.0536595 2.76742e-22)
(0.196004 -0.0479544 2.95924e-22)
(0.19609 -0.0412219 8.62913e-22)
(0.195895 -0.0336761 -8.63251e-22)
(0.195389 -0.025582 4.90429e-22)
(0.194571 -0.0172288 6.56891e-22)
(0.19347 -0.00890735 2.05162e-22)
(0.192131 -0.000881551 2.2186e-22)
(0.190623 0.00664654 -1.56417e-21)
(0.189026 0.013502 2.76257e-23)
(0.187413 0.0195688 -4.45192e-21)
(0.185853 0.0247847 4.41254e-21)
(0.184405 0.0291308 0)
(0.183115 0.0326207 0)
(0.182023 0.0352895 8.42116e-23)
(0.181162 0.0371878 0)
(0.18057 0.0383783 0)
(0.180221 0.0388978 0)
(0.197744 -0.0422404 0)
(0.196224 -0.0476553 0)
(0.195102 -0.0521963 0)
(0.194345 -0.0560802 3.75389e-23)
(0.193833 -0.0592979 0)
(0.193547 -0.0618144 0)
(0.193484 -0.0635651 -7.97172e-22)
(0.193632 -0.0644613 8.06767e-22)
(0.193944 -0.0644179 8.45965e-24)
(0.194377 -0.0633885 0)
(0.194886 -0.0611678 0)
(0.195388 -0.057761 6.46646e-22)
(0.195815 -0.0531986 -6.48683e-22)
(0.196086 -0.0475555 0)
(0.196132 -0.0409715 2.90188e-21)
(0.195905 -0.0336437 -2.90195e-21)
(0.195381 -0.0258117 0)
(0.19456 -0.0177374 -1.06643e-21)
(0.19347 -0.00968104 1.07107e-21)
(0.192158 -0.00188008 0)
(0.190685 0.00547555 0)
(0.189119 0.0122259 -2.59088e-23)
(0.187533 0.0182598 3.5723e-21)
(0.185988 0.0235123 -3.60098e-21)
(0.184539 0.027958 0)
(0.183231 0.031602 0)
(0.182098 0.0344709 -7.92781e-23)
(0.181167 0.036605 0)
(0.180477 0.0380575 0)
(0.180036 0.038876 0)
(0.196929 -0.0448208 0)
(0.19573 -0.0497029 0)
(0.194789 -0.0538098 0)
(0.194121 -0.0573501 -8.3948e-23)
(0.193678 -0.0602807 8.64749e-23)
(0.193458 -0.062543 -4.26346e-23)
(0.193456 -0.0640601 4.30355e-23)
(0.193657 -0.06474 -7.76736e-24)
(0.194004 -0.0645187 0)
(0.194472 -0.0633158 0)
(0.194993 -0.060961 1.13708e-23)
(0.195494 -0.0574741 0)
(0.195903 -0.0528819 0)
(0.196142 -0.0472618 7.02941e-24)
(0.196145 -0.0407509 6.00753e-21)
(0.19587 -0.033539 -6.00773e-21)
(0.195293 -0.0258535 -1.11525e-23)
(0.194423 -0.0179406 0)
(0.193288 -0.0100439 0)
(0.191938 -0.00238559 -5.93435e-23)
(0.190434 0.00484622 0)
(0.188845 0.011507 0)
(0.187238 0.0174919 6.13846e-23)
(0.185673 0.0227367 4.71621e-21)
(0.184202 0.0272141 -4.67229e-21)
(0.182867 0.0309255 5.47858e-21)
(0.181698 0.033893 -5.4274e-21)
(0.180717 0.0361518 0)
(0.179963 0.0377574 0)
(0.179493 0.0388131 0)
(0.196204 -0.0471246 0)
(0.195226 -0.0515659 -1.05941e-21)
(0.194385 -0.0553243 4.20052e-22)
(0.193783 -0.0585636 1.39093e-21)
(0.193405 -0.0612217 -1.45393e-21)
(0.193248 -0.0632319 7.22225e-22)
(0.193303 -0.064515 0)
(0.193557 -0.0649808 2.09e-23)
(0.193945 -0.0645829 0)
(0.194448 -0.0632036 0)
(0.194987 -0.0607211 -4.34517e-22)
(0.195494 -0.0571561 4.1662e-22)
(0.195891 -0.0525362 0)
(0.1961 -0.0469407 -7.37996e-24)
(0.196057 -0.0405043 9.96293e-21)
(0.195721 -0.0334093 -9.9633e-21)
(0.195073 -0.0258719 1.17087e-23)
(0.194125 -0.0181237 0)
(0.192911 -0.0103934 2.12639e-21)
(0.191484 -0.00288913 -1.97919e-21)
(0.189909 0.00421342 -8.03497e-23)
(0.188256 0.0107771 0)
(0.186591 0.016703 1.77851e-22)
(0.184976 0.0219296 0)
(0.183459 0.0264288 -5.91024e-21)
(0.182081 0.0301993 1.17876e-20)
(0.18087 0.0332588 -1.21752e-20)
(0.179841 0.0356363 -6.64459e-21)
(0.179031 0.0373847 1.27097e-20)
(0.178569 0.0386714 0)
(0.195449 -0.0493023 0)
(0.194602 -0.0533597 3.15313e-21)
(0.193839 -0.0567943 -3.07205e-21)
(0.193305 -0.0597388 0)
(0.192991 -0.0621264 0)
(0.192895 -0.0638861 5.64417e-23)
(0.193005 -0.0649379 0)
(0.193309 -0.0651948 -2.19e-23)
(0.193738 -0.0646183 1.77814e-22)
(0.194275 -0.0630623 -1.80262e-22)
(0.194832 -0.0604543 3.55983e-22)
(0.195344 -0.0568097 -3.49406e-22)
(0.195727 -0.0521586 -2.54407e-23)
(0.195902 -0.0465826 1.81675e-23)
(0.195807 -0.0402145 1.4775e-20)
(0.195401 -0.0332303 -1.47756e-20)
(0.19467 -0.0258362 -3.37269e-23)
(0.193629 -0.0182508 7.64023e-23)
(0.192317 -0.0106888 -2.62687e-21)
(0.190791 -0.00334449 2.53532e-21)
(0.18912 0.00361809 3.07382e-21)
(0.187377 0.0100707 -2.96831e-21)
(0.185631 0.015921 -1.86387e-22)
(0.183942 0.0211113 0)
(0.182359 0.0256139 2.22303e-22)
(0.180923 0.0294262 0)
(0.179658 0.0325625 0)
(0.178577 0.035046 1.43401e-20)
(0.177712 0.0369246 -1.36842e-20)
(0.177264 0.0384307 0)
(0.194589 -0.0513552 5.31349e-21)
(0.19382 -0.0550479 -8.2003e-21)
(0.19313 -0.0581742 2.5962e-21)
(0.192662 -0.0608381 0)
(0.192411 -0.0629679 2.33761e-21)
(0.192371 -0.0644887 -2.26268e-21)
(0.192536 -0.0653197 1.68527e-21)
(0.192885 -0.0653796 -1.76469e-21)
(0.193356 -0.0646211 0)
(0.193922 -0.0628948 -1.81773e-23)
(0.194494 -0.0601649 -2.96031e-22)
(0.195006 -0.0564386 -3.92388e-23)
(0.195368 -0.0517508 -1.41498e-22)
(0.195504 -0.0461855 5.16493e-22)
(0.195349 -0.0398744 2.05194e-20)
(0.194867 -0.0329888 -2.05235e-20)
(0.194045 -0.0257263 1.3217e-21)
(0.192902 -0.0182945 -1.41929e-23)
(0.191482 -0.0108954 1.71138e-21)
(0.189846 -0.00371098 -3.12947e-21)
(0.188067 0.00310596 -2.29245e-22)
(0.18622 0.00943638 0)
(0.184376 0.0151952 7.62143e-21)
(0.182597 0.0203292 -7.80009e-21)
(0.180934 0.0248128 8.18022e-21)
(0.179426 0.0286431 -7.80744e-21)
(0.178096 0.0318325 -5.18918e-22)
(0.176955 0.0343997 -8.00925e-21)
(0.17603 0.0363867 2.25519e-20)
(0.175591 0.0380896 -1.56109e-20)
(0.193579 -0.0532679 -3.63896e-21)
(0.192858 -0.0566134 4.1082e-21)
(0.192234 -0.0594531 3.83592e-21)
(0.191829 -0.0618551 -3.87982e-21)
(0.191636 -0.0637423 3.18714e-21)
(0.191652 -0.0650362 -3.39627e-21)
(0.191873 -0.0656549 -1.10805e-22)
(0.192254 -0.0655292 0)
(0.192768 -0.0645873 5.6405e-22)
(0.193356 -0.0626992 -3.77756e-22)
(0.19394 -0.059848 -4.30205e-22)
(0.194443 -0.0560373 2.72175e-22)
(0.194779 -0.0513069 5.71235e-22)
(0.194867 -0.0457434 -1.02386e-21)
(0.194648 -0.039478 2.7627e-20)
(0.194084 -0.0326783 -2.65537e-20)
(0.193167 -0.0255349 -2.16253e-21)
(0.191918 -0.0182461 1.70753e-21)
(0.190386 -0.0110027 3.69775e-21)
(0.188636 -0.00397551 5.29082e-22)
(0.186743 0.00269307 4.69839e-22)
(0.184785 0.00889312 -4.12545e-21)
(0.182835 0.0145469 0)
(0.180958 0.0196064 -3.17518e-22)
(0.179204 0.0240489 8.51153e-21)
(0.177612 0.0278728 -8.93604e-21)
(0.176208 0.0310896 9.03538e-21)
(0.174998 0.0337149 -8.3656e-21)
(0.174008 0.0357857 -7.7618e-21)
(0.173565 0.0376555 8.82353e-21)
(0.19238 -0.055038 0)
(0.191688 -0.0580589 4.44146e-21)
(0.191125 -0.0606351 -5.37636e-21)
(0.190779 -0.0627932 4.65421e-21)
(0.190642 -0.0644509 -4.4571e-21)
(0.190711 -0.0655283 3.361e-21)
(0.190981 -0.0659427 -3.4508e-21)
(0.191397 -0.0656376 -1.86618e-22)
(0.191946 -0.0645122 -6.68991e-23)
(0.19255 -0.0624684 -3.73234e-23)
(0.193137 -0.059495 -2.95179e-25)
(0.193625 -0.0555969 -1.56847e-23)
(0.193926 -0.0508181 7.11128e-22)
(0.193961 -0.0452482 -1.96204e-22)
(0.193671 -0.0390184 3.44331e-20)
(0.193021 -0.0322935 -3.56733e-20)
(0.192007 -0.0252581 -9.97574e-22)
(0.190653 -0.0181024 1.51365e-21)
(0.189009 -0.0110077 -1.34834e-22)
(0.187144 -0.00413444 -5.55134e-22)
(0.185137 0.00238464 -3.07394e-22)
(0.183066 0.0084483 -3.19655e-22)
(0.181008 0.0139861 -6.55864e-22)
(0.179028 0.0189553 1.08855e-20)
(0.177177 0.0233372 -1.08233e-20)
(0.175497 0.027132 1.02893e-20)
(0.17401 0.0303512 -9.53216e-21)
(0.172724 0.0330086 8.7817e-21)
(0.171661 0.0351379 -1.04853e-20)
(0.1712 0.0371412 0)
(0.19096 -0.0566693 0)
(0.190285 -0.0593895 3.98318e-22)
(0.189778 -0.0617235 -4.95003e-21)
(0.189488 -0.063653 3.85359e-22)
(0.189404 -0.0650927 5.46521e-21)
(0.189523 -0.0659624 2.76056e-22)
(0.189837 -0.0661814 2.75703e-22)
(0.190289 -0.0656967 -1.24056e-21)
(0.190863 -0.0643891 1.52974e-21)
(0.191476 -0.0621929 -7.41103e-24)
(0.192058 -0.0590962 1.05345e-22)
(0.192522 -0.0551073 -1.05978e-22)
(0.192781 -0.0502749 3.45637e-22)
(0.192756 -0.0446914 -3.82916e-22)
(0.192391 -0.0384887 4.36987e-20)
(0.191653 -0.0318291 -4.37009e-20)
(0.190541 -0.0248924 -1.00529e-21)
(0.189082 -0.0178614 1.13019e-21)
(0.187329 -0.0109087 -2.31996e-21)
(0.185353 -0.00418584 3.08358e-21)
(0.183235 0.00218372 -2.89613e-23)
(0.181055 0.00810682 -5.71503e-21)
(0.17889 0.01352 6.31433e-21)
(0.176806 0.0183861 7.55879e-22)
(0.174858 0.0226903 6.99019e-22)
(0.173085 0.0264353 -1.16288e-20)
(0.171512 0.0296337 -6.97171e-23)
(0.170144 0.0322986 1.27724e-20)
(0.169005 0.0344614 0)
(0.16851 0.0365636 0)
(0.189285 -0.0581669 0)
(0.188622 -0.0606092 -7.40009e-21)
(0.188168 -0.0627191 3.78864e-22)
(0.187932 -0.0644334 4.89296e-22)
(0.187898 -0.0656647 1.19939e-20)
(0.188065 -0.0663341 -5.98225e-21)
(0.188415 -0.0663648 -2.88705e-22)
(0.1889 -0.0656968 0)
(0.189492 -0.0642092 1.0413e-21)
(0.190108 -0.0618624 -1.09883e-21)
(0.190676 -0.0586408 -1.03236e-22)
(0.191108 -0.0545578 -3.7279e-22)
(0.191317 -0.0496672 4.78968e-22)
(0.191227 -0.0440644 -3.43731e-23)
(0.190783 -0.0378821 5.36176e-20)
(0.189956 -0.0312803 -5.36496e-20)
(0.188746 -0.0244346 6.95374e-23)
(0.187185 -0.0175213 2.56842e-21)
(0.185328 -0.0107051 2.46032e-22)
(0.183246 -0.00412902 -3.50955e-21)
(0.181023 0.00209167 6.62816e-21)
(0.178739 0.00787148 -6.23453e-21)
(0.176471 0.0131535 0)
(0.174288 0.017906 -7.90022e-22)
(0.172243 0.0221183 1.32076e-20)
(0.170378 0.0257958 -2.69671e-20)
(0.168716 0.0289525 -5.13674e-23)
(0.167264 0.0316018 -6.38053e-22)
(0.166044 0.0337742 1.23857e-20)
(0.165502 0.0359415 0)
(0.187326 -0.0595359 -1.11098e-21)
(0.186672 -0.0617206 0)
(0.18627 -0.0636215 -4.84361e-22)
(0.186084 -0.0651315 6.95865e-21)
(0.1861 -0.066162 -7.64237e-21)
(0.186313 -0.066635 6.06346e-21)
(0.186688 -0.0664834 -6.13193e-21)
(0.187204 -0.0656272 -1.98227e-21)
(0.187806 -0.0639643 3.54683e-21)
(0.188419 -0.0614656 -6.85711e-22)
(0.188965 -0.0581169 -5.81265e-22)
(0.189358 -0.0539372 -5.33748e-22)
(0.18951 -0.048985 5.02689e-23)
(0.18935 -0.0433587 8.76453e-22)
(0.188824 -0.0371917 6.44187e-20)
(0.187907 -0.0306425 -6.5309e-20)
(0.186603 -0.0238821 1.78033e-21)
(0.184944 -0.0170811 1.61495e-21)
(0.182987 -0.0103969 -2.89206e-21)
(0.180807 -0.00396461 7.58015e-21)
(0.178485 0.00210815 8.18544e-22)
(0.176104 0.00774295 -1.33976e-20)
(0.173741 0.0128891 7.20735e-21)
(0.171464 0.0175199 1.49087e-20)
(0.169327 0.0216286 -1.47022e-20)
(0.167371 0.0252236 1.46429e-20)
(0.165622 0.0283205 -1.54124e-20)
(0.164085 0.0309334 9.25578e-22)
(0.162783 0.0330938 0)
(0.162183 0.0352939 -1.5189e-21)
(0.185051 -0.0607803 1.15542e-21)
(0.184406 -0.0627247 -1.00661e-20)
(0.184055 -0.0644282 9.6199e-21)
(0.183919 -0.0657422 5.35113e-22)
(0.183981 -0.0665776 4.97166e-22)
(0.184234 -0.0668577 0)
(0.184637 -0.0665244 -4.21666e-22)
(0.185176 -0.0654776 -2.60727e-21)
(0.185781 -0.0636411 3.69592e-21)
(0.186382 -0.0609893 -1.59902e-21)
(0.1869 -0.057512 -1.39741e-23)
(0.187246 -0.0532337 -6.00613e-22)
(0.187337 -0.0482177 6.03841e-22)
(0.187103 -0.0425654 4.37334e-23)
(0.186493 -0.0364109 7.71628e-20)
(0.185487 -0.0299109 -7.71297e-20)
(0.18409 -0.0232325 -8.83229e-23)
(0.182337 -0.0165403 3.27282e-21)
(0.180288 -0.00998489 -3.25537e-21)
(0.178017 -0.00369413 -4.44886e-22)
(0.175606 0.00223154 7.48624e-21)
(0.173136 0.00772026 -1.65512e-20)
(0.170687 0.012727 7.0282e-21)
(0.168322 0.0172299 -1.07678e-21)
(0.166099 0.0212258 0)
(0.164058 0.0247262 9.92842e-22)
(0.162224 0.027748 9.79136e-22)
(0.160603 0.0303066 -1.56463e-20)
(0.15922 0.0324354 1.44319e-20)
(0.158553 0.0346393 1.57965e-21)
(0.182427 -0.0619022 0)
(0.181795 -0.0636199 -6.00957e-23)
(0.181494 -0.0651342 1.03869e-20)
(0.181407 -0.0662579 -1.05882e-20)
(0.181514 -0.066902 -8.92669e-21)
(0.181802 -0.0669934 1.35123e-20)
(0.182234 -0.0664731 -3.54687e-21)
(0.182787 -0.0652344 -2.75504e-23)
(0.183389 -0.0632253 -2.80715e-22)
(0.183973 -0.0604195 0)
(0.184455 -0.0568125 1.35133e-22)
(0.184748 -0.0524348 -8.13946e-22)
(0.184773 -0.0473545 6.81656e-22)
(0.184462 -0.0416757 -4.57624e-23)
(0.183768 -0.035533 9.09499e-20)
(0.182673 -0.0290812 -9.09936e-20)
(0.181188 -0.0224833 9.24204e-23)
(0.179348 -0.0158984 3.66981e-21)
(0.177214 -0.00947025 -7.64819e-21)
(0.174861 -0.00331981 3.96929e-21)
(0.172369 0.00245922 0)
(0.169821 0.00780106 -1.16712e-21)
(0.167293 0.0126659 -7.89972e-23)
(0.164851 0.0170362 1.04773e-20)
(0.162549 0.0209124 -2.66218e-20)
(0.160428 0.0243083 1.83017e-20)
(0.158514 0.0272425 1.80967e-20)
(0.156812 0.029732 -1.88259e-20)
(0.15535 0.0318123 -7.25809e-23)
(0.154609 0.0339942 0)
(0.179422 -0.0629013 0)
(0.178806 -0.0644011 -1.13645e-20)
(0.178557 -0.0657319 1.23682e-20)
(0.17852 -0.0666689 1.02195e-20)
(0.178672 -0.0671226 -1.10935e-20)
(0.178987 -0.0670278 -4.94825e-21)
(0.179447 -0.0663138 7.95596e-22)
(0.180009 -0.0648843 4.15658e-21)
(0.180605 -0.0627015 6.05038e-22)
(0.181164 -0.0597409 0)
(0.181604 -0.0560041 0)
(0.18184 -0.0515277 7.0569e-22)
(0.181795 -0.0463842 -8.40551e-22)
(0.181404 -0.0406805 0)
(0.180627 -0.0345512 1.06198e-19)
(0.179447 -0.0281489 -1.06203e-19)
(0.177877 -0.0216326 0)
(0.175957 -0.0151554 -3.84951e-21)
(0.173746 -0.00885461 4.63053e-21)
(0.17132 -0.00284444 0)
(0.168758 0.00278778 0)
(0.166142 0.00798192 2.5186e-21)
(0.163546 0.012703 -9.14774e-21)
(0.161035 0.0169373 -1.9375e-22)
(0.158662 0.0206884 9.0114e-21)
(0.156469 0.0239723 2.04872e-20)
(0.15448 0.0268092 -2.14051e-20)
(0.152702 0.0292172 -1.94561e-20)
(0.151163 0.031235 2.01819e-20)
(0.150346 0.0333729 0)
(0.175999 -0.0637731 0)
(0.175407 -0.0650587 0)
(0.17521 -0.0662102 0)
(0.175224 -0.0669623 -1.14806e-20)
(0.175419 -0.0672254 6.09302e-21)
(0.175765 -0.0669432 6.33147e-21)
(0.176248 -0.0660293 5.90992e-22)
(0.176813 -0.0644099 3.16913e-21)
(0.177397 -0.0620524 -1.09685e-21)
(0.177926 -0.0589368 -2.12354e-21)
(0.178319 -0.0550715 -1.73179e-23)
(0.178494 -0.0504987 1.31509e-22)
(0.178376 -0.0452954 9.30325e-22)
(0.177906 -0.0395706 -7.19863e-22)
(0.177046 -0.0334588 1.2296e-19)
(0.175784 -0.02711 -1.22955e-19)
(0.174136 -0.0206784 -2.16477e-21)
(0.172143 -0.0143115 1.49033e-21)
(0.169865 -0.00813999 -1.19544e-21)
(0.167375 -0.0022714 -6.63115e-22)
(0.164754 0.00321296 1.10708e-20)
(0.162081 0.00825831 5.43591e-22)
(0.159427 0.012834 -1.12295e-20)
(0.156857 0.0169298 1.48935e-21)
(0.154424 0.0205519 -1.00461e-20)
(0.152167 0.0237183 -1.29228e-20)
(0.150109 0.0264502 2.36718e-20)
(0.148259 0.0287673 0)
(0.146649 0.0307111 0)
(0.145753 0.0327868 0)
(0.17212 -0.0645066 -1.51151e-20)
(0.171558 -0.0655819 1.59674e-20)
(0.171417 -0.0665556 0)
(0.171484 -0.0671224 -6.81105e-21)
(0.171721 -0.0671945 7.71148e-21)
(0.172099 -0.0667178 5.46298e-21)
(0.172601 -0.0656001 -6.8165e-21)
(0.173167 -0.063791 0)
(0.173734 -0.0612586 -3.58883e-22)
(0.174229 -0.0579892 0)
(0.174571 -0.0539982 1.03714e-24)
(0.174681 -0.0493335 6.82807e-24)
(0.174489 -0.0440761 -1.70805e-22)
(0.173939 -0.0383367 -1.33517e-22)
(0.172999 -0.032249 1.41501e-19)
(0.17166 -0.0259601 -1.41519e-19)
(0.169941 -0.0196191 2.65592e-22)
(0.167883 -0.0133674 6.03096e-22)
(0.165547 -0.00732894 -4.19259e-23)
(0.163006 -0.0016048 -4.51556e-23)
(0.160337 0.00372963 0)
(0.157617 0.00862453 -1.50555e-21)
(0.154918 0.0130532 0)
(0.1523 0.0170086 9.67591e-21)
(0.149815 0.020499 -1.25365e-20)
(0.147503 0.0235439 -1.11042e-20)
(0.145385 0.0261654 1.23654e-20)
(0.14347 0.0283844 0)
(0.141793 0.0302452 -2.00555e-20)
(0.140818 0.0322439 2.17008e-20)
(0.167742 -0.0650874 0)
(0.16722 -0.0659546 7.43308e-23)
(0.167139 -0.0667499 1.72348e-20)
(0.167263 -0.0671277 -1.64068e-20)
(0.167539 -0.0670078 9.34878e-22)
(0.167953 -0.0663264 -1.62974e-21)
(0.16847 -0.0650048 6.78927e-22)
(0.169034 -0.0630052 0)
(0.169581 -0.0602985 0)
(0.170037 -0.0568783 0)
(0.170324 -0.0527665 1.77005e-23)
(0.170368 -0.0480167 1.01895e-21)
(0.170101 -0.0427136 -1.99067e-21)
(0.169473 -0.0369689 1.74842e-21)
(0.168457 -0.030915 1.61019e-19)
(0.167046 -0.0246952 -1.62828e-19)
(0.165263 -0.0184535 3.46355e-21)
(0.16315 -0.0123242 -8.46538e-21)
(0.160767 -0.00642477 6.30648e-21)
(0.158186 -0.000849657 7.66071e-22)
(0.155482 0.00433148 8.58896e-22)
(0.152729 0.0090735 0)
(0.149996 0.0133534 0)
(0.147342 0.0171665 1.71325e-21)
(0.144816 0.0205232 -3.53258e-21)
(0.142457 0.0234439 1.80518e-21)
(0.140287 0.0259513 2.74524e-20)
(0.138314 0.0280672 -2.50766e-20)
(0.136575 0.0298385 1.10893e-22)
(0.135524 0.0317489 0)
(0.162822 -0.0654924 -1.82906e-20)
(0.162343 -0.0661602 1.69612e-20)
(0.16233 -0.06677 7.7927e-21)
(0.162514 -0.0669534 -9.07132e-21)
(0.162835 -0.0666358 -8.44123e-21)
(0.163283 -0.0657422 8.56742e-21)
(0.163813 -0.0642171 5.495e-21)
(0.164373 -0.0620267 -4.96335e-21)
(0.164896 -0.059148 1.59273e-21)
(0.16531 -0.0555817 -1.38622e-21)
(0.165541 -0.0513567 -3.05595e-22)
(0.165516 -0.0465317 -2.94925e-22)
(0.165175 -0.0411944 5.12531e-22)
(0.164472 -0.035457 -8.57721e-23)
(0.163383 -0.0294498 1.83791e-19)
(0.161908 -0.0233117 -1.83815e-19)
(0.16007 -0.0171806 1.68526e-22)
(0.157913 -0.0111839 3.50064e-21)
(0.155496 -0.00543178 3.68862e-21)
(0.152888 -1.22575e-05 -6.71473e-21)
(0.150162 0.00501068 6.64366e-21)
(0.147389 0.00959635 -6.44207e-21)
(0.144635 0.013725 1.77252e-20)
(0.141956 0.0173942 -1.54284e-20)
(0.139401 0.0206157 -1.37779e-20)
(0.137006 0.0234105 1.34599e-20)
(0.134792 0.0258014 1.51669e-20)
(0.132769 0.027811 -1.65883e-20)
(0.130975 0.0294883 -2.81536e-20)
(0.129849 0.0313021 2.67039e-20)
(0.157303 -0.0656996 -1.25794e-21)
(0.156878 -0.0661675 -2.01232e-20)
(0.15694 -0.066584 2.19968e-20)
(0.157184 -0.0665683 0)
(0.157558 -0.0660425 -1.13901e-21)
(0.158039 -0.0649335 0)
(0.158583 -0.0632052 -8.70718e-22)
(0.159136 -0.0608256 4.62656e-21)
(0.159633 -0.0577792 -4.90435e-21)
(0.160002 -0.0540746 1.35206e-22)
(0.160174 -0.049747 -2.90876e-23)
(0.16008 -0.0448601 1.15386e-22)
(0.159666 -0.0395038 1.15296e-22)
(0.158891 -0.0337901 8.9029e-23)
(0.157736 -0.0278463 2.07756e-19)
(0.156205 -0.0218061 -2.07768e-19)
(0.154323 -0.0158004 -1.74925e-22)
(0.152134 -0.00994938 -3.96447e-22)
(0.149695 -0.00435571 9.29118e-22)
(0.147075 0.000899336 0)
(0.144341 0.00575731 1.04938e-21)
(0.141563 0.0101818 1.60892e-20)
(0.138802 0.0141559 -1.66636e-20)
(0.136113 0.0176792 -2.23269e-21)
(0.13354 0.020764 0)
(0.13112 0.0234319 -2.20263e-21)
(0.128872 0.0257051 0)
(0.126807 0.0276068 -3.0104e-20)
(0.124964 0.0291874 3.13623e-20)
(0.123768 0.030899 -1.81786e-21)
(0.151122 -0.0656736 -2.07417e-20)
(0.150765 -0.0659372 2.15831e-20)
(0.150906 -0.0661497 1.00326e-22)
(0.15122 -0.0659317 1.12915e-20)
(0.15165 -0.0651871 -1.8142e-20)
(0.152165 -0.0638636 1.04107e-20)
(0.152722 -0.061932 8.96296e-22)
(0.153266 -0.0593665 4.38365e-23)
(0.153734 -0.0561597 0)
(0.154056 -0.0523278 -1.39628e-22)
(0.154167 -0.0479124 4.67157e-22)
(0.154005 -0.0429812 -5.66173e-22)
(0.153519 -0.0376257 -1.38363e-22)
(0.152677 -0.0319566 8.47044e-22)
(0.151463 -0.0260973 2.32798e-19)
(0.149886 -0.0201752 -2.35226e-19)
(0.147972 -0.0143139 1.67735e-21)
(0.145764 -0.00862534 4.66535e-22)
(0.14332 -0.00320438 -9.22676e-21)
(0.140702 0.00187455 8.17102e-21)
(0.137978 0.00655852 -1.08369e-21)
(0.13521 0.0108151 0)
(0.132457 0.0146302 -2.28303e-21)
(0.129772 0.0180047 2.29826e-21)
(0.127195 0.0209514 -1.65968e-20)
(0.124762 0.0234915 3.9649e-20)
(0.122491 0.0256468 -1.5925e-20)
(0.120392 0.0274401 1.65127e-22)
(0.118509 0.028923 -3.23322e-20)
(0.117246 0.0305291 3.45792e-20)
(0.144204 -0.0653658 0)
(0.143929 -0.0654169 0)
(0.14416 -0.0654239 -1.31654e-20)
(0.144552 -0.0649905 1.07122e-20)
(0.145041 -0.0640214 0)
(0.145591 -0.0624836 -1.14628e-21)
(0.14616 -0.0603511 -1.04501e-21)
(0.146693 -0.0576065 -7.80994e-22)
(0.147129 -0.0542507 0)
(0.147402 -0.0503072 0)
(0.147451 -0.0458238 -1.18673e-23)
(0.147221 -0.0408712 -9.40705e-22)
(0.146667 -0.0355418 1.17204e-21)
(0.145763 -0.0299438 1.09208e-22)
(0.1445 -0.0241955 2.62029e-19)
(0.142888 -0.0184171 -2.6214e-19)
(0.140955 -0.0127237 -2.12626e-22)
(0.138744 -0.0072187 3.19321e-21)
(0.136311 -0.00198861 -4.14994e-21)
(0.133714 0.00289916 0)
(0.131016 0.00739723 0)
(0.128277 0.0114771 0)
(0.125551 0.0151268 0)
(0.122885 0.0183485 -2.71069e-21)
(0.12032 0.0211549 -2.51506e-21)
(0.117887 0.0235664 0)
(0.115604 0.0256037 -2.27194e-20)
(0.113483 0.0272891 1.73236e-20)
(0.111567 0.0286746 0)
(0.110244 0.030174 0)
(0.13646 -0.0647131 -1.66593e-21)
(0.136284 -0.0645457 0)
(0.136615 -0.0643377 0)
(0.137093 -0.0636764 0)
(0.137644 -0.0624837 0)
(0.13823 -0.0607329 0)
(0.13881 -0.0584054 1.06729e-21)
(0.13933 -0.0554928 4.53657e-22)
(0.13973 -0.0520047 -1.87918e-21)
(0.139952 -0.0479717 1.3953e-21)
(0.139938 -0.0434465 1.1371e-22)
(0.13964 -0.0385025 1.64089e-21)
(0.139023 -0.0332314 6.86045e-22)
(0.138064 -0.0277378 -1.65976e-21)
(0.136762 -0.0221336 2.92547e-19)
(0.135128 -0.0165307 -2.92591e-19)
(0.133192 -0.0110349 -4.13071e-21)
(0.130997 -0.00573986 -5.41813e-22)
(0.128594 -0.000723656 1.45667e-20)
(0.126039 0.00395367 -1.91738e-20)
(0.123389 0.00825026 7.72428e-22)
(0.120698 0.0121413 1.08887e-20)
(0.118017 0.015617 1.47936e-21)
(0.11539 0.01868 2.76845e-21)
(0.112853 0.0213427 0)
(0.110437 0.0236242 0)
(0.108156 0.0255435 0)
(0.106024 0.027122 0)
(0.104085 0.0284112 0)
(0.102707 0.0298041 -2.49788e-21)
(0.127779 -0.063629 3.52365e-21)
(0.127721 -0.0632359 -1.44834e-20)
(0.128166 -0.062799 1.50482e-20)
(0.128736 -0.0619058 0)
(0.129351 -0.0604907 -1.18568e-20)
(0.129972 -0.0585323 1.36727e-20)
(0.13056 -0.0560213 -9.15045e-21)
(0.131062 -0.0529588 7.7818e-21)
(0.131423 -0.0493627 0)
(0.13159 -0.0452702 5.4988e-22)
(0.131512 -0.0407385 -1.42116e-21)
(0.131149 -0.0358421 1.76404e-21)
(0.130473 -0.0306706 -1.26054e-21)
(0.129469 -0.0253236 -1.28092e-21)
(0.12814 -0.0199052 3.26625e-19)
(0.1265 -0.0145176 -3.23315e-19)
(0.124581 -0.00925626 -1.96183e-21)
(0.122423 -0.00420461 -4.47723e-21)
(0.120073 0.000568526 1.59822e-20)
(0.117583 0.0050106 9.40761e-22)
(0.115004 0.00908531 -1.28973e-20)
(0.112386 0.0127714 -1.59368e-21)
(0.109774 0.0160609 -2.84775e-20)
(0.107206 0.0189566 2.30924e-20)
(0.104718 0.0214701 -2.19842e-20)
(0.102336 0.0236188 2.45408e-20)
(0.100074 0.0254194 0)
(0.0979448 0.0268921 -2.35249e-20)
(0.095995 0.0280865 2.27764e-20)
(0.0945718 0.0293744 5.29967e-21)
(0.118022 -0.06199 1.20948e-20)
(0.118103 -0.0613628 -1.56679e-20)
(0.118672 -0.0606869 -1.33643e-20)
(0.119337 -0.0595634 1.60112e-20)
(0.120017 -0.057931 1.47674e-20)
(0.120671 -0.055777 -2.76965e-20)
(0.121261 -0.0531024 1.7531e-20)
(0.12174 -0.0499176 -4.25692e-21)
(0.122056 -0.0462486 0)
(0.122163 -0.0421386 -7.52174e-22)
(0.12202 -0.0376475 7.68864e-22)
(0.121595 -0.0328498 1.05103e-22)
(0.120868 -0.0278313 1.00504e-21)
(0.119831 -0.0226849 -1.71741e-21)
(0.11849 -0.0175051 3.60961e-19)
(0.116864 -0.0123833 -3.59187e-19)
(0.114984 -0.00740312 -3.56217e-21)
(0.112888 -0.00263714 2.46734e-21)
(0.110618 0.00185558 -7.51426e-22)
(0.108222 0.00603028 -1.58647e-20)
(0.105743 0.00985621 1.42304e-20)
(0.103226 0.0133156 3.36105e-21)
(0.100709 0.0164017 1.55104e-20)
(0.0982281 0.0191175 -3.78766e-20)
(0.0958127 0.0214732 4.78052e-20)
(0.0934867 0.0234837 -2.32795e-20)
(0.0912636 0.0251634 -2.67503e-20)
(0.0891556 0.0265301 2.58942e-20)
(0.0872093 0.0276314 2.38132e-20)
(0.0857518 0.0288158 -3.01292e-20)
(0.107007 -0.0596164 1.97888e-20)
(0.107249 -0.0587433 2.55012e-21)
(0.107947 -0.0578319 -3.31164e-21)
(0.108707 -0.0564841 -1.75538e-20)
(0.109446 -0.0546485 -1.82156e-21)
(0.110126 -0.0523225 2.49873e-21)
(0.110709 -0.0495174 6.16128e-23)
(0.111155 -0.0462529 0)
(0.111419 -0.0425623 0)
(0.111462 -0.0384932 -7.72891e-22)
(0.111254 -0.0341071 7.84708e-22)
(0.110772 -0.0294763 -1.05852e-22)
(0.110002 -0.024681 0)
(0.108947 -0.019805 -5.98459e-22)
(0.107615 -0.0149318 3.98693e-19)
(0.106028 -0.0101402 -3.96774e-19)
(0.104216 -0.00550124 -1.51126e-21)
(0.102213 -0.00107534 0)
(0.100057 0.00308858 7.5678e-22)
(0.097788 0.00695374 -1.23221e-20)
(0.0954443 0.010495 1.1979e-20)
(0.0930623 0.0136977 -1.75535e-21)
(0.0906753 0.0165565 0)
(0.0883128 0.0190735 1.68112e-22)
(0.0860008 0.0212574 5.54644e-21)
(0.0837598 0.0231203 -3.54289e-21)
(0.0816016 0.0246735 2.92443e-20)
(0.0795379 0.0259321 -6.80583e-23)
(0.0776149 0.0269401 2.49127e-21)
(0.0761386 0.0280217 -2.36441e-20)
(0.0944876 -0.0562264 -1.96693e-20)
(0.0949021 -0.055119 1.6862e-20)
(0.0957268 -0.0539797 0)
(0.0965745 -0.052426 -1.59564e-20)
(0.097361 -0.0504177 1.88546e-20)
(0.0980507 -0.0479625 -7.53551e-21)
(0.098613 -0.0450819 1.15688e-20)
(0.0990124 -0.0418039 -4.96527e-21)
(0.0992143 -0.0381674 0)
(0.0991898 -0.0342231 0)
(0.0989177 -0.0300314 -5.39084e-22)
(0.0983852 -0.0256602 6.72334e-22)
(0.0975892 -0.0211817 0)
(0.0965361 -0.0166687 -1.75557e-22)
(0.0952409 -0.0121913 4.38027e-19)
(0.0937256 -0.00781433 -4.38062e-19)
(0.0920177 -0.00359466 3.3294e-22)
(0.0901478 0.000419862 0)
(0.088148 0.00419108 6.2522e-21)
(0.0860502 0.00769037 -6.07243e-21)
(0.0838855 0.0108981 0)
(0.0816828 0.0138026 0)
(0.0794684 0.0163993 1.86215e-20)
(0.0772663 0.0186895 -3.45184e-20)
(0.0750976 0.0206794 1.41013e-20)
(0.0729794 0.022378 -3.03805e-20)
(0.0709214 0.0237933 3.35379e-20)
(0.0689345 0.0249368 0)
(0.0670636 0.0258483 -3.22713e-20)
(0.0655912 0.0268246 2.56104e-20)
(0.0801086 -0.0513791 -2.04983e-20)
(0.0806933 -0.0500633 1.99188e-20)
(0.0816269 -0.0487272 -2.04371e-20)
(0.0825374 -0.0470142 1.19336e-21)
(0.0833451 -0.0448959 1.58602e-21)
(0.0840198 -0.04239 2.56182e-20)
(0.0845382 -0.0395266 -7.45007e-21)
(0.0848738 -0.03634 -6.23811e-22)
(0.0850027 -0.0328729 2.6084e-21)
(0.0849069 -0.0291762 -3.40859e-21)
(0.0845765 -0.0253067 7.42087e-22)
(0.084009 -0.0213249 -1.7945e-21)
(0.0832098 -0.0172921 3.0356e-21)
(0.0821913 -0.0132674 -2.29957e-21)
(0.0809717 -0.00930588 4.82175e-19)
(0.0795729 -0.00545636 -4.79811e-19)
(0.0780192 -0.00176072 -4.63607e-21)
(0.0763359 0.00174662 1.0383e-20)
(0.0745479 0.00503849 -6.19651e-21)
(0.072679 0.00809452 -1.63846e-20)
(0.0707516 0.0109004 3.3339e-20)
(0.0687863 0.0134473 -1.67806e-20)