/*--------------------------------*- C++ -*----------------------------------*\
  =========                 |
  \\      /  F ield         | OpenFOAM: The Open Source CFD Toolbox
   \\    /   O peration     | Website:  https://openfoam.org
    \\  /    A nd           | Version:  12
     \\/     M anipulation  |
\*---------------------------------------------------------------------------*/
FoamFile
{
    format      ascii;
    class       volVectorField;
    location    "60";
    object      UMean;
}
// * * * * * * * * * * * * * * * * * * * * * * * * * * * * * * * * * * * * * //

dimensions      [0 1 -1 0 0 0 0];

internalField   nonuniform List<vector> 
6750
(
(0.200096 -0.00289463 0)
(0.200486 -0.00842509 0)
(0.200875 -0.0132093 0)
(0.201206 -0.0174319 0)
(0.20125 -0.0212617 0)
(0.200035 -0.00338589 0)
(0.200333 -0.0092512 0)
(0.200621 -0.0140587 0)
(0.200815 -0.0181028 0)
(0.200854 -0.0215573 0)
(0.200024 -0.00357364 0)
(0.200163 -0.00957072 0)
(0.200261 -0.0143334 0)
(0.200261 -0.0182074 0)
(0.200172 -0.0213872 0)
(0.200008 -0.00362356 0)
(0.19999 -0.00960517 0)
(0.199895 -0.0142666 0)
(0.199713 -0.0179835 0)
(0.199486 -0.0209783 0)
(0.199993 -0.00357154 0)
(0.199832 -0.00940704 0)
(0.199552 -0.013906 0)
(0.199189 -0.0174597 0)
(0.19881 -0.0203061 0)
(0.19998 -0.00343348 0)
(0.199687 -0.00900757 0)
(0.199227 -0.0132813 0)
(0.19868 -0.0166457 0)
(0.198132 -0.0193393 0)
(0.199969 -0.00322301 0)
(0.199549 -0.00843307 0)
(0.198913 -0.0124179 0)
(0.198177 -0.0155543 0)
(0.197449 -0.018071 0)
(0.199959 -0.00295112 0)
(0.199418 -0.00770664 0)
(0.19861 -0.011341 0)
(0.197687 -0.0142058 0)
(0.196772 -0.0165124 0)
(0.199949 -0.00262772 0)
(0.199296 -0.0068516 0)
(0.198324 -0.01008 0)
(0.197221 -0.0126305 0)
(0.196124 -0.0146918 0)
(0.199941 -0.00226307 0)
(0.199185 -0.00589352 0)
(0.198066 -0.00867002 0)
(0.196797 -0.0108687 0)
(0.195529 -0.0126522 0)
(0.199934 -0.0018681 0)
(0.19909 -0.00486014 0)
(0.197843 -0.00715049 0)
(0.196431 -0.00896819 0)
(0.195014 -0.0104473 0)
(0.199929 -0.00145402 0)
(0.199014 -0.00377999 0)
(0.197662 -0.00556278 0)
(0.196134 -0.00698006 0)
(0.194595 -0.00813621 0)
(0.199925 -0.00103167 0)
(0.198958 -0.00268073 0)
(0.197529 -0.00394729 0)
(0.195915 -0.00495479 0)
(0.194283 -0.00577795 0)
(0.199921 -0.000610718 0)
(0.198925 -0.00158774 0)
(0.197445 -0.00234069 0)
(0.195774 -0.0029385 0)
(0.194083 -0.00342725 0)
(0.199911 -0.000202927 0)
(0.198919 -0.000521288 0)
(0.197407 -0.000772335 0)
(0.195709 -0.000969798 0)
(0.193988 -0.00113107 0)
(0.199911 0.000201784 0)
(0.198919 0.00051878 0)
(0.197407 0.000768954 0)
(0.195709 0.000965858 0)
(0.193988 0.00112674 0)
(0.199921 0.000609572 0)
(0.198925 0.00158523 0)
(0.197445 0.00233732 0)
(0.195774 0.00293457 0)
(0.194083 0.00342293 0)
(0.199925 0.00103053 0)
(0.198958 0.00267823 0)
(0.197529 0.00394393 0)
(0.195915 0.00495088 0)
(0.194283 0.00577365 0)
(0.199929 0.00145289 0)
(0.199014 0.0037775 0)
(0.197662 0.00555945 0)
(0.196134 0.00697619 0)
(0.194594 0.00813196 0)
(0.199934 0.00186699 0)
(0.19909 0.00485768 0)
(0.197842 0.0071472 0)
(0.196431 0.00896437 0)
(0.195013 0.0104431 0)
(0.199941 0.00226198 0)
(0.199185 0.0058911 0)
(0.198066 0.00866677 0)
(0.196797 0.0108649 0)
(0.195529 0.0126481 0)
(0.199949 0.00262665 0)
(0.199296 0.00684922 0)
(0.198324 0.0100768 0)
(0.197221 0.0126268 0)
(0.196123 0.0146877 0)
(0.199959 0.00295008 0)
(0.199418 0.00770432 0)
(0.19861 0.0113379 0)
(0.197687 0.0142022 0)
(0.196772 0.0165084 0)
(0.199969 0.00322202 0)
(0.199549 0.00843081 0)
(0.198913 0.0124148 0)
(0.198177 0.0155508 0)
(0.197448 0.018067 0)
(0.19998 0.00343255 0)
(0.199687 0.00900539 0)
(0.199227 0.0132783 0)
(0.19868 0.0166422 0)
(0.198132 0.0193354 0)
(0.199993 0.00357066 0)
(0.199832 0.00940494 0)
(0.199552 0.0139031 0)
(0.199189 0.0174562 0)
(0.19881 0.0203021 0)
(0.200008 0.00362275 0)
(0.19999 0.00960314 0)
(0.199895 0.0142637 0)
(0.199713 0.0179799 0)
(0.199486 0.0209742 0)
(0.200024 0.00357288 0)
(0.200163 0.00956877 0)
(0.200261 0.0143306 0)
(0.200261 0.0182038 0)
(0.200172 0.021383 0)
(0.200035 0.0033852 0)
(0.200332 0.00924934 0)
(0.200621 0.0140558 0)
(0.200814 0.0180992 0)
(0.200853 0.021553 0)
(0.200096 0.00289405 0)
(0.200486 0.00842338 0)
(0.200874 0.0132067 0)
(0.201205 0.0174284 0)
(0.20125 0.0212574 0)
(0.200212 -0.0294559 0)
(0.199359 -0.0330302 0)
(0.198741 -0.0361669 0)
(0.198483 -0.0388609 -4.85296e-22)
(0.198462 -0.041053 0)
(0.198629 -0.0427148 0)
(0.198971 -0.0438067 3.20523e-20)
(0.199479 -0.0442605 -3.22873e-20)
(0.200118 -0.0439976 -2.47128e-22)
(0.200853 -0.0429384 -1.60192e-20)
(0.20164 -0.0409527 1.42182e-22)
(0.202409 -0.0380088 1.63959e-22)
(0.203087 -0.0341096 8.07483e-21)
(0.203594 -0.0293157 7.90978e-21)
(0.203863 -0.0237566 1.83836e-20)
(0.203843 -0.0176246 -1.83901e-20)
(0.203509 -0.0111589 7.46926e-21)
(0.202867 -0.00462065 7.10757e-21)
(0.201951 0.00173356 -2.21435e-22)
(0.200818 0.00767923 -2.12274e-22)
(0.199542 0.0130436 -1.40501e-20)
(0.198203 0.0176971 2.1447e-22)
(0.196875 0.0215722 -2.65833e-20)
(0.195622 0.0246522 2.63481e-20)
(0.194498 0.0269601 0)
(0.193542 0.0285453 0)
(0.192778 0.0294722 3.88349e-22)
(0.192233 0.0298169 0)
(0.191946 0.0296776 0)
(0.191853 0.0291256 0)
(0.199745 -0.0318517 0)
(0.199025 -0.0353188 0)
(0.198612 -0.0381366 0)
(0.198483 -0.040478 4.58498e-22)
(0.198542 -0.0423447 0)
(0.198774 -0.0437174 0)
(0.199175 -0.0445479 -2.89702e-20)
(0.199737 -0.0447625 2.95884e-20)
(0.200418 -0.0442905 2.32465e-22)
(0.201192 -0.0430389 0)
(0.202002 -0.0409037 0)
(0.202782 -0.0378642 1.47861e-20)
(0.203461 -0.0339285 -1.48326e-20)
(0.203963 -0.0291603 0)
(0.204223 -0.0236842 5.01352e-20)
(0.204196 -0.0176793 -5.01304e-20)
(0.20386 -0.0113647 0)
(0.203221 -0.00497886 -1.37105e-20)
(0.202312 0.00124466 1.37739e-20)
(0.201188 0.00709915 0)
(0.199917 0.0124205 0)
(0.198573 0.0170869 -2.0107e-22)
(0.197228 0.0210286 2.48747e-20)
(0.195945 0.0242221 -2.50743e-20)
(0.194775 0.0266809 0)
(0.193755 0.0284449 0)
(0.19291 0.029569 -3.65534e-22)
(0.192259 0.030115 0)
(0.191841 0.030156 0)
(0.191653 0.0297286 0)
(0.199284 -0.033725 0)
(0.198784 -0.0368196 0)
(0.1985 -0.0393503 0)
(0.19844 -0.0414759 -2.73173e-20)
(0.198559 -0.0431687 2.76225e-20)
(0.198858 -0.0443895 -2.88075e-20)
(0.199333 -0.0450793 2.90784e-20)
(0.199971 -0.0451608 -4.67932e-22)
(0.200727 -0.0445668 0)
(0.201577 -0.043197 0)
(0.202454 -0.0409663 4.66402e-22)
(0.203293 -0.0378566 0)
(0.204016 -0.0338798 0)
(0.204546 -0.0291021 1.18947e-22)
(0.204818 -0.0236468 8.49198e-20)
(0.204786 -0.0176878 -8.49172e-20)
(0.20443 -0.0114357 -1.18621e-22)
(0.203759 -0.00511744 0)
(0.202807 0.00104468 0)
(0.201631 0.00685275 -4.62217e-22)
(0.200302 0.0121467 0)
(0.198894 0.0168136 0)
(0.19748 0.0207844 4.25229e-22)
(0.196121 0.0240332 2.7156e-20)
(0.19487 0.0265698 -2.6903e-20)
(0.193765 0.0284297 2.70457e-20)
(0.192831 0.0296644 -2.67332e-20)
(0.192083 0.0303333 0)
(0.191551 0.0305113 0)
(0.19126 0.0302565 0)
(0.198862 -0.0353928 0)
(0.198515 -0.0381844 5.52607e-20)
(0.198309 -0.0404922 -2.80743e-20)
(0.198312 -0.0424355 -5.74488e-20)
(0.198503 -0.0439686 5.813e-20)
(0.198882 -0.0450433 -2.89312e-20)
(0.199446 -0.0455958 0)
(0.200178 -0.0455482 -9.11257e-22)
(0.201034 -0.0448339 0)
(0.201983 -0.0433492 0)
(0.202954 -0.0410265 -1.64817e-20)
(0.203876 -0.0378485 1.55867e-20)
(0.204665 -0.0338315 0)
(0.205242 -0.029044 -1.24879e-22)
(0.205536 -0.0236081 1.20846e-19)
(0.2055 -0.017693 -1.20832e-19)
(0.205115 -0.0115014 1.24529e-22)
(0.204393 -0.00525012 0)
(0.203371 0.000849173 1.58658e-20)
(0.20211 0.00660822 -1.48087e-20)
(0.200685 0.0118749 -4.94555e-22)
(0.199175 0.0165392 0)
(0.197653 0.0205346 9.6243e-22)
(0.196186 0.0238343 0)
(0.194827 0.0264449 -2.90466e-20)
(0.193614 0.028398 5.63246e-20)
(0.192575 0.0297404 -5.51872e-20)
(0.191721 0.0305275 -2.70233e-20)
(0.191081 0.030833 5.38631e-20)
(0.190702 0.0307449 0)
(0.198405 -0.0369735 0)
(0.198154 -0.0395157 -5.68368e-20)
(0.198022 -0.0416285 5.59252e-20)
(0.198099 -0.0434025 0)
(0.198374 -0.0447847 0)
(0.198847 -0.0457206 -8.91649e-22)
(0.199512 -0.0461426 0)
(0.200352 -0.0459721 9.55378e-22)
(0.201322 -0.045139 -1.53735e-20)
(0.202383 -0.0435419 1.54893e-20)
(0.203461 -0.0411265 1.64485e-20)
(0.204477 -0.0378761 -1.60279e-20)
(0.205341 -0.0338114 -5.09469e-22)
(0.205969 -0.0290032 2.59128e-22)
(0.206287 -0.0235735 1.57998e-19)
(0.206246 -0.017688 -1.57978e-19)
(0.205828 -0.0115427 -2.68326e-22)
(0.205045 -0.00534616 5.39236e-22)
(0.20394 0.000699405 -1.70756e-20)
(0.202578 0.00641447 1.64693e-20)
(0.201038 0.0116541 1.73289e-20)
(0.199403 0.0163131 -1.66907e-20)
(0.197753 0.0203274 -1.00862e-21)
(0.196156 0.0236703 0)
(0.194669 0.0263466 1.00772e-21)
(0.193332 0.0283848 0)
(0.192172 0.0298283 0)
(0.191202 0.0307278 5.90031e-20)
(0.190449 0.0311529 -5.63499e-20)
(0.189981 0.0312182 0)
(0.197868 -0.0384864 -5.32031e-20)
(0.19769 -0.0408085 8.39382e-20)
(0.197636 -0.0427482 -2.7862e-20)
(0.197798 -0.0443716 0)
(0.198167 -0.045619 -2.88378e-20)
(0.198742 -0.0464298 2.83217e-20)
(0.19952 -0.046732 -2.90634e-20)
(0.200475 -0.0464473 3.02612e-20)
(0.201568 -0.0454989 0)
(0.202746 -0.0437929 9.82709e-22)
(0.203934 -0.041283 -1.64232e-20)
(0.205045 -0.0379539 8.10709e-21)
(0.205985 -0.0338304 9.13701e-22)
(0.206662 -0.0289863 8.33642e-21)
(0.207002 -0.0235442 1.96608e-19)
(0.206954 -0.0176677 -1.96605e-19)
(0.206498 -0.0115482 9.39146e-21)
(0.20565 -0.00538763 -1.06872e-21)
(0.204457 0.000619374 9.21697e-21)
(0.202987 0.00630077 -1.82493e-20)
(0.201324 0.011518 -1.15216e-21)
(0.199556 0.016171 0)
(0.197766 0.0201988 3.543e-20)
(0.196028 0.0235757 -3.61973e-20)
(0.194401 0.026306 3.52963e-20)
(0.192928 0.0284163 -3.37691e-20)
(0.191637 0.0299476 -2.09096e-21)
(0.190542 0.0309472 -3.18854e-20)
(0.189666 0.0314806 9.13651e-20)
(0.189105 0.0316856 -6.38543e-20)
(0.197227 -0.0399387 2.55324e-20)
(0.197114 -0.0420678 -2.88515e-20)
(0.197145 -0.0438593 -2.94641e-20)
(0.197399 -0.0453527 2.98939e-20)
(0.197869 -0.0464818 -2.8919e-20)
(0.198554 -0.0471801 3.11559e-20)
(0.19945 -0.0473717 8.87816e-22)
(0.200525 -0.0469793 0)
(0.201742 -0.0459182 -1.59963e-20)
(0.203038 -0.0441047 -1.36734e-21)
(0.204333 -0.0414963 -1.41069e-21)
(0.205535 -0.0380805 1.75665e-20)
(0.206544 -0.0338863 8.40123e-21)
(0.207266 -0.0289906 -1.35744e-20)
(0.207621 -0.0235174 2.4099e-19)
(0.20756 -0.0176294 -2.31624e-19)
(0.207064 -0.0115151 -1.44799e-20)
(0.20615 -0.00537134 1.08957e-20)
(0.204867 0.000613143 1.96825e-20)
(0.203288 0.00627264 1.34458e-21)
(0.201501 0.0114743 1.24439e-21)
(0.199598 0.016123 -1.94308e-20)
(0.197667 0.0201609 0)
(0.195784 0.0235643 -1.24018e-21)
(0.194011 0.0263377 3.46995e-20)
(0.192396 0.0285071 -3.65301e-20)
(0.190968 0.0301118 3.52894e-20)
(0.189742 0.0311973 -3.26556e-20)
(0.18874 0.0318259 -3.12e-20)
(0.188077 0.0321551 3.54143e-20)
(0.196466 -0.0413476 0)
(0.196416 -0.0433126 -2.53717e-20)
(0.196537 -0.04498 3.09875e-20)
(0.196888 -0.0463618 -3.00719e-20)
(0.197464 -0.0473861 2.86731e-20)
(0.198264 -0.0479815 -2.79568e-20)
(0.19928 -0.048069 2.81774e-20)
(0.200477 -0.0475713 1.9216e-21)
(0.201815 -0.0463979 9.94911e-22)
(0.203223 -0.0444748 1.03113e-21)
(0.204619 -0.0417618 1.08774e-21)
(0.205902 -0.0382499 -5.61107e-22)
(0.206971 -0.0339724 9.93229e-21)
(0.207727 -0.0290098 -4.56036e-21)
(0.208092 -0.023488 2.73069e-19)
(0.208012 -0.0175699 -2.82996e-19)
(0.207472 -0.011442 -5.26737e-21)
(0.206491 -0.00529763 9.0046e-21)
(0.205119 0.000679489 -6.63175e-22)
(0.203434 0.00632886 -2.63689e-21)
(0.201526 0.0115228 -1.3346e-21)
(0.199492 0.0161703 -1.32827e-21)
(0.197421 0.0202172 -2.63141e-21)
(0.195395 0.0236419 4.32602e-20)
(0.193479 0.0264499 -4.28161e-20)
(0.191721 0.0286673 3.91319e-20)
(0.190155 0.0303325 -3.62236e-20)
(0.188795 0.0314901 3.25056e-20)
(0.187665 0.0322002 -3.88359e-20)
(0.186895 0.032637 0)
(0.195564 -0.0427347 0)
(0.19558 -0.044563 -1.63148e-21)
(0.195794 -0.0461269 2.40523e-20)
(0.196248 -0.0474122 2.91776e-22)
(0.196933 -0.0483419 -2.86147e-20)
(0.19785 -0.048841 -1.89058e-21)
(0.198985 -0.048828 -1.87796e-21)
(0.200301 -0.0482235 1.40475e-20)
(0.201753 -0.0469355 -1.72695e-20)
(0.203265 -0.0448978 -2.22433e-23)
(0.20475 -0.0420722 9.04918e-21)
(0.206103 -0.0384537 -9.10355e-21)
(0.20722 -0.0340802 4.29082e-21)
(0.208 -0.0290361 -4.90815e-21)
(0.208363 -0.0234499 3.21116e-19)
(0.208259 -0.0174852 -3.21138e-19)
(0.207671 -0.0113273 -5.50233e-21)
(0.206622 -0.00516671 6.17345e-21)
(0.205164 0.00081672 -1.06117e-20)
(0.203377 0.00646706 1.40675e-20)
(0.201355 0.011661 -3.66915e-23)
(0.199195 0.0163118 -2.26049e-20)
(0.196992 0.0203683 2.50923e-20)
(0.194829 0.0238112 2.80037e-21)
(0.192773 0.0266476 2.6663e-21)
(0.190877 0.0289039 -4.22598e-20)
(0.189175 0.0306186 3.85213e-22)
(0.187683 0.0318357 4.56624e-20)
(0.186426 0.0326144 0)
(0.185548 0.0331427 0)
(0.194502 -0.0441219 0)
(0.194588 -0.0458372 2.82422e-20)
(0.194899 -0.0473141 3.16628e-22)
(0.195456 -0.048514 3.81124e-22)
(0.196252 -0.0493559 -5.57797e-20)
(0.197284 -0.0497615 2.94424e-20)
(0.198534 -0.0496479 1.9629e-21)
(0.199963 -0.0489322 0)
(0.20152 -0.0475249 -1.60424e-20)
(0.203125 -0.0453651 1.61294e-20)
(0.204685 -0.0424173 -9.36703e-21)
(0.206095 -0.0386811 -3.80036e-22)
(0.207245 -0.0341992 9.85358e-21)
(0.208036 -0.0290604 -3.27876e-22)
(0.208389 -0.0233958 3.66161e-19)
(0.208252 -0.0173704 -3.66349e-19)
(0.207613 -0.0111685 3.64456e-22)
(0.206495 -0.0049786 1.19521e-20)
(0.204954 0.00102289 2.15498e-22)
(0.20307 0.006684 -1.50668e-20)
(0.20094 0.0118855 2.59129e-20)
(0.198664 0.016544 -2.42284e-20)
(0.196338 0.0206117 0)
(0.194046 0.0240716 -2.92699e-21)
(0.191859 0.026932 4.65919e-20)
(0.189832 0.0292204 -9.44325e-20)
(0.187999 0.0309756 3.91259e-22)
(0.18638 0.0322413 -2.16439e-21)
(0.184999 0.0330767 4.25076e-20)
(0.184015 0.0336823 0)
(0.193256 -0.045529 3.15549e-21)
(0.193415 -0.0471503 0)
(0.193824 -0.0485522 1.71602e-21)
(0.194486 -0.0496738 -2.62116e-20)
(0.195392 -0.0504305 2.82693e-20)
(0.196536 -0.0507416 -3.02161e-20)
(0.197893 -0.0505242 3.06384e-20)
(0.199428 -0.0496903 1.66044e-20)
(0.201078 -0.0481564 -3.64071e-20)
(0.202762 -0.0458649 -1.88308e-21)
(0.204383 -0.0427843 1.73878e-20)
(0.205834 -0.0389191 -1.02193e-20)
(0.207003 -0.0343172 4.90324e-21)
(0.207792 -0.0290718 8.53918e-21)
(0.208122 -0.0233172 4.10516e-19)
(0.207946 -0.0172195 -4.16182e-19)
(0.207252 -0.0109626 8.88737e-21)
(0.206064 -0.00473305 6.54614e-21)
(0.204442 0.0012959 -1.2703e-20)
(0.202468 0.00697582 2.94187e-20)
(0.200238 0.0121911 1.93723e-21)
(0.197854 0.0168619 -4.88649e-20)
(0.195415 0.0209429 2.5856e-20)
(0.193005 0.0244194 5.11362e-20)
(0.190698 0.0273012 -5.04279e-20)
(0.188548 0.0296168 4.90593e-20)
(0.186592 0.0314052 -5.1429e-20)
(0.184852 0.0327105 2.98575e-21)
(0.183354 0.0335925 0)
(0.182268 0.0342634 -5.64742e-21)
(0.191799 -0.0469734 -3.28156e-21)
(0.192034 -0.0485138 2.72213e-20)
(0.192542 -0.0498478 -2.61737e-20)
(0.193307 -0.0508936 -1.75085e-21)
(0.19432 -0.0515642 -1.82119e-21)
(0.195569 -0.0517766 0)
(0.197027 -0.0514479 1.92017e-21)
(0.198655 -0.0504868 1.89141e-20)
(0.200385 -0.0488164 -3.38641e-20)
(0.202133 -0.0463824 1.92372e-20)
(0.203799 -0.0431577 1.23303e-21)
(0.205274 -0.0391526 -1.0658e-20)
(0.206447 -0.0344203 1.07153e-20)
(0.207221 -0.0290586 3.62565e-22)
(0.207518 -0.0232047 4.62187e-19)
(0.207294 -0.017026 -4.61983e-19)
(0.20654 -0.0107062 -4.12637e-22)
(0.205283 -0.00442946 1.36388e-20)
(0.203583 0.00163369 -1.35655e-20)
(0.201523 0.00733836 -1.72074e-21)
(0.199201 0.0125724 2.6452e-20)
(0.19672 0.017259 -5.77422e-20)
(0.194178 0.0213554 2.42511e-20)
(0.191662 0.0248488 -3.49995e-21)
(0.189244 0.0277504 0)
(0.186982 0.0300897 3.26827e-21)
(0.184914 0.0319061 3.19068e-21)
(0.183062 0.033244 -5.00716e-20)
(0.181454 0.0341641 4.61124e-20)
(0.180273 0.0348907 5.87305e-21)
(0.190098 -0.0484678 0)
(0.19041 -0.0499347 -1.00213e-22)
(0.191015 -0.051203 -2.60847e-20)
(0.191882 -0.0521715 2.65861e-20)
(0.192995 -0.0527509 2.87348e-20)
(0.194343 -0.052857 -4.62151e-20)
(0.195892 -0.0524059 1.34147e-20)
(0.1976 -0.0513065 -6.25475e-23)
(0.199396 -0.0494881 2.2008e-21)
(0.201192 -0.0468997 0)
(0.202886 -0.0435199 1.04383e-20)
(0.204369 -0.0393647 -2.16394e-20)
(0.20553 -0.0344931 1.11859e-20)
(0.206275 -0.0290074 -3.79385e-22)
(0.206529 -0.0230478 5.13374e-19)
(0.206249 -0.0167827 -5.13581e-19)
(0.205431 -0.010395 4.31786e-22)
(0.204104 -0.00406691 1.45694e-20)
(0.202328 0.00203438 -2.9349e-20)
(0.200189 0.00776734 1.47516e-20)
(0.197784 0.0130232 0)
(0.195215 0.017728 -3.82049e-21)
(0.192582 0.0218413 -1.12526e-22)
(0.18997 0.0253521 3.32854e-20)
(0.187454 0.0282728 -8.37238e-20)
(0.185091 0.0306336 5.72804e-20)
(0.18292 0.0324742 5.56346e-20)
(0.180965 0.0338393 -5.79177e-20)
(0.179256 0.0347907 -1.16063e-22)
(0.177989 0.0355656 0)
(0.188115 -0.05002 0)
(0.188503 -0.0514146 2.28246e-20)
(0.189204 -0.0526146 -2.48985e-20)
(0.190167 -0.0535 -2.52767e-20)
(0.191376 -0.0539791 2.73881e-20)
(0.192811 -0.0539683 1.70594e-20)
(0.194442 -0.053381 8.08457e-22)
(0.196216 -0.0521306 -1.86212e-20)
(0.198062 -0.0501511 -4.5405e-21)
(0.199889 -0.0473962 0)
(0.201594 -0.0438504 0)
(0.203067 -0.0395363 1.02071e-20)
(0.204202 -0.0345186 -1.24365e-20)
(0.204903 -0.028904 0)
(0.205103 -0.0228352 5.66806e-19)
(0.204761 -0.0164816 -5.6681e-19)
(0.203876 -0.0100247 0)
(0.202478 -0.00364411 -1.45956e-20)
(0.20063 0.00249619 1.74582e-20)
(0.198417 0.00825836 0)
(0.195937 0.0135369 0)
(0.193291 0.0182608 8.08935e-21)
(0.190576 0.0223918 -2.8304e-20)
(0.187881 0.0259201 -8.73772e-23)
(0.185278 0.0288593 2.75031e-20)
(0.182826 0.0312401 6.13626e-20)
(0.180563 0.0331023 -6.40301e-20)
(0.178514 0.0344906 -5.80645e-20)
(0.176714 0.0354682 6.03122e-20)
(0.17537 0.0362863 0)
(0.185803 -0.0516313 0)
(0.186266 -0.0529484 0)
(0.187058 -0.0540734 0)
(0.188113 -0.0548658 2.46546e-20)
(0.18941 -0.0552322 -1.11104e-20)
(0.190923 -0.0550902 -1.61224e-20)
(0.192622 -0.0543512 -1.93792e-21)
(0.194449 -0.0529355 -1.76693e-20)
(0.196328 -0.0507812 -1.18748e-21)
(0.198169 -0.0478478 1.93957e-20)
(0.199867 -0.0441266 1.352e-21)
(0.201314 -0.0396466 2.93217e-21)
(0.202406 -0.0344784 8.0858e-21)
(0.203052 -0.0287328 -6.11379e-21)
(0.203188 -0.022555 6.22317e-19)
(0.202777 -0.0161141 -6.22313e-19)
(0.201821 -0.00959021 -8.54659e-21)
(0.200353 -0.00315968 5.96919e-21)
(0.198437 0.00301732 -4.20185e-21)
(0.196156 0.00880678 -2.16894e-21)
(0.193609 0.0141067 3.48626e-20)
(0.190896 0.0188488 5.79975e-22)
(0.188112 0.0229967 -3.43998e-20)
(0.185345 0.0265421 4.35468e-21)
(0.182667 0.0294992 -2.94132e-20)
(0.180136 0.0318989 -3.7124e-20)
(0.177791 0.0337808 6.86528e-20)
(0.175659 0.0351895 0)
(0.173775 0.0361894 0)
(0.172365 0.0370472 0)
(0.183109 -0.0532951 2.23195e-20)
(0.183642 -0.0545244 -2.34429e-20)
(0.184523 -0.0555632 0)
(0.185664 -0.0562491 1.27993e-20)
(0.187039 -0.0564875 -1.47964e-20)
(0.188622 -0.0561967 -1.49205e-20)
(0.190375 -0.0552893 1.92381e-20)
(0.192238 -0.0536929 0)
(0.194134 -0.0513502 2.38009e-21)
(0.195971 -0.0482273 0)
(0.197644 -0.0443227 -9.96885e-24)
(0.199049 -0.0396722 -1.07433e-24)
(0.200083 -0.0343522 -1.65173e-21)
(0.200662 -0.0284772 -8.87684e-22)
(0.200724 -0.0221941 6.80828e-19)
(0.200239 -0.0156714 -6.80855e-19)
(0.19921 -0.0090865 1.05002e-21)
(0.197674 -0.00261221 2.1816e-21)
(0.195693 0.0035957 -5.72218e-23)
(0.193353 0.00940748 -6.31782e-23)
(0.190748 0.0147248 0)
(0.187977 0.019482 -4.58597e-21)
(0.185135 0.0236448 0)
(0.182307 0.0272058 2.76364e-20)
(0.179565 0.0301796 -3.60146e-20)
(0.176966 0.0325971 -3.11061e-20)
(0.17455 0.0344974 3.47294e-20)
(0.172343 0.0359244 0)
(0.170385 0.036944 -5.9917e-20)
(0.168917 0.0378391 6.45037e-20)
(0.179967 -0.0549964 0)
(0.180567 -0.0561228 1.2781e-22)
(0.181532 -0.0570603 -2.40536e-20)
(0.182754 -0.0576222 2.32725e-20)
(0.184198 -0.0577147 -1.57175e-21)
(0.185838 -0.057255 3.56497e-21)
(0.187632 -0.0561621 -2.00433e-21)
(0.189516 -0.0543692 0)
(0.191412 -0.051825 0)
(0.193227 -0.0485032 0)
(0.194859 -0.0444097 -1.45574e-21)
(0.196204 -0.0395874 1.16339e-20)
(0.197167 -0.0341179 -1.96334e-20)
(0.197666 -0.0281191 1.15407e-20)
(0.197647 -0.0217387 7.37284e-19)
(0.197083 -0.0151438 -7.45553e-19)
(0.195981 -0.0085084 1.29389e-20)
(0.194378 -0.00200063 -2.9208e-20)
(0.192339 0.00422867 2.11951e-20)
(0.189946 0.0100545 2.41776e-21)
(0.187292 0.0153823 2.52361e-21)
(0.184475 0.0201494 0)
(0.181586 0.0243232 0)
(0.178709 0.0278971 4.85372e-21)
(0.175914 0.0308857 -9.73681e-21)
(0.173259 0.0333197 4.8627e-21)
(0.170781 0.035237 7.43164e-20)
(0.168509 0.0366809 -6.79692e-20)
(0.166484 0.0377183 1.74319e-22)
(0.164966 0.0386493 0)
(0.176303 -0.0567093 1.95324e-20)
(0.176965 -0.0577148 -1.80428e-20)
(0.17801 -0.0585315 -9.33793e-21)
(0.179305 -0.058949 1.0958e-20)
(0.180811 -0.0588745 1.47075e-20)
(0.182497 -0.0582254 -1.5171e-20)
(0.184317 -0.0569291 -1.62904e-20)
(0.186206 -0.0549245 1.44662e-20)
(0.188085 -0.0521673 -1.13655e-20)
(0.18986 -0.0486396 1.03191e-20)
(0.191432 -0.0443549 -1.40311e-20)
(0.192703 -0.0393633 5.76716e-21)
(0.19358 -0.0337511 6.04278e-21)
(0.19399 -0.0276389 -4.94664e-22)
(0.193883 -0.0211743 8.03604e-19)
(0.193237 -0.0145218 -8.03643e-19)
(0.192062 -0.00785101 6.01142e-22)
(0.190397 -0.00132455 1.13776e-20)
(0.188305 0.0049125 1.07974e-20)
(0.185869 0.0107403 -2.06304e-20)
(0.183178 0.0160686 1.88758e-20)
(0.180326 0.0208377 -1.84586e-20)
(0.177402 0.0250164 4.83832e-20)
(0.174488 0.0285989 -4.21483e-20)
(0.171652 0.0315996 -3.66647e-20)
(0.16895 0.034048 3.58596e-20)
(0.16642 0.0359811 3.98911e-20)
(0.16409 0.0374407 -4.36806e-20)
(0.162005 0.0384947 -7.81226e-20)
(0.160444 0.0394604 7.42044e-20)
(0.172027 -0.0583972 1.03312e-21)
(0.172746 -0.0592594 1.7937e-20)
(0.173867 -0.059932 -1.95296e-20)
(0.17523 -0.0601826 0)
(0.176788 -0.0599175 1.42216e-21)
(0.178509 -0.0590585 0)
(0.180341 -0.0575414 1.8576e-21)
(0.182219 -0.0553112 -1.81946e-20)
(0.184062 -0.0523322 1.98412e-20)
(0.18578 -0.048595 -1.36858e-21)
(0.187276 -0.0441213 3.08851e-21)
(0.188457 -0.0389677 1.71928e-21)
(0.189237 -0.0332251 9.42826e-22)
(0.189548 -0.0270155 5.13446e-22)
(0.189347 -0.0204854 8.67615e-19)
(0.188617 -0.0137956 -8.67638e-19)
(0.187372 -0.00711003 -6.23966e-22)
(0.18565 -0.000584745 -1.30381e-21)
(0.183515 0.00564174 2.77769e-21)
(0.181046 0.0114554 0)
(0.17833 0.0167706 2.89714e-21)
(0.175456 0.0215305 4.34048e-20)
(0.172511 0.0257058 -4.51952e-20)
(0.169572 0.0292907 -5.79405e-21)
(0.166706 0.0322991 0)
(0.163969 0.0347594 -5.60698e-21)
(0.161396 0.0367064 0)
(0.159016 0.0381806 -7.74469e-20)
(0.156878 0.0392505 8.05638e-20)
(0.155278 0.0402501 -4.99851e-21)
(0.167031 -0.0600083 1.45423e-20)
(0.167805 -0.0607003 -1.53515e-20)
(0.168999 -0.0612025 1.67702e-22)
(0.170424 -0.0612626 -1.13742e-20)
(0.172027 -0.0607825 2.09307e-20)
(0.173769 -0.0596939 -1.37039e-20)
(0.175599 -0.0579394 -1.91217e-21)
(0.177449 -0.0554726 8.81809e-23)
(0.17924 -0.0522666 0)
(0.180883 -0.0483211 1.41334e-21)
(0.182286 -0.0436661 1.02172e-20)
(0.183362 -0.0383641 -1.53267e-20)
(0.184033 -0.0325098 -9.93266e-22)
(0.184238 -0.0262258 3.97188e-21)
(0.18394 -0.0196558 9.2846e-19)
(0.183127 -0.0129556 -9.38212e-19)
(0.181815 -0.00628218 5.88067e-21)
(0.180045 0.000216118 1.42742e-21)
(0.177878 0.00640831 -2.66454e-20)
(0.175389 0.0121869 2.35e-20)
(0.172661 0.017471 -2.99187e-21)
(0.169781 0.0222072 0)
(0.166829 0.0263675 -6.01542e-21)
(0.163879 0.0299464 5.96419e-21)
(0.160997 0.0329566 -4.19314e-20)
(0.158235 0.0354249 9.97161e-20)
(0.155629 0.0373838 -3.99766e-20)
(0.153206 0.0388715 2.58823e-22)
(0.15102 0.0399567 -8.41913e-20)
(0.149384 0.0409891 9.0289e-20)
(0.161188 -0.0614709 0)
(0.162017 -0.061962 0)
(0.163281 -0.062269 8.65544e-21)
(0.164764 -0.062111 -6.78022e-21)
(0.166403 -0.0613929 0)
(0.168155 -0.0600558 1.58154e-21)
(0.169967 -0.0580505 1.72881e-21)
(0.171773 -0.0553399 2.155e-21)
(0.173493 -0.0519071 0)
(0.175043 -0.047761 0)
(0.176338 -0.0429395 1.63166e-21)
(0.177296 -0.0375107 -8.68615e-21)
(0.177847 -0.0315718 9.89669e-21)
(0.17794 -0.0252445 5.64314e-22)
(0.177543 -0.0186685 9.99695e-19)
(0.17665 -0.0119928 -1.00006e-18)
(0.175279 -0.00536602 -7.01355e-22)
(0.173471 0.00107244 9.25171e-21)
(0.171285 0.00720016 -1.21287e-20)
(0.168792 0.0129168 0)
(0.16607 0.018147 0)
(0.1632 0.0228406 0)
(0.160258 0.0269709 0)
(0.157314 0.0305323 -6.65475e-21)
(0.154429 0.0335364 -6.27934e-21)
(0.151655 0.0360073 0)
(0.149025 0.0379747 -5.51302e-20)
(0.146568 0.0394743 4.19087e-20)
(0.14434 0.0405744 0)
(0.142669 0.0416384 0)
(0.154344 -0.0626885 5.31472e-22)
(0.155229 -0.0629477 0)
(0.156565 -0.0630305 0)
(0.158102 -0.0626271 0)
(0.159767 -0.0616502 0)
(0.161515 -0.060049 0)
(0.163295 -0.0577841 -1.76567e-21)
(0.165038 -0.0548289 -9.96308e-22)
(0.166669 -0.0511769 1.05159e-20)
(0.168109 -0.0468464 1.4171e-22)
(0.169279 -0.0418828 -2.82707e-20)
(0.170106 -0.0363588 2.33059e-20)
(0.17053 -0.0303727 9.00412e-22)
(0.170506 -0.0240437 -9.06213e-21)
(0.170012 -0.0175057 1.06622e-18)
(0.169044 -0.0108992 -1.06629e-18)
(0.167625 -0.00436297 -1.23947e-20)
(0.165793 0.00197416 -7.43345e-22)
(0.163604 0.00799931 3.98359e-20)
(0.161126 0.0136202 -5.07999e-20)
(0.158431 0.0187672 2.67054e-21)
(0.155591 0.0233937 2.75609e-20)
(0.152679 0.0274745 3.58012e-21)
(0.14976 0.0310034 6.79653e-21)
(0.14689 0.0339902 0)
(0.144118 0.0364563 0)
(0.141477 0.0384277 0)
(0.138993 0.0399371 0)
(0.136728 0.0410515 0)
(0.135024 0.0421452 -6.15841e-21)
(0.14631 -0.0635292 -8.30537e-22)
(0.147257 -0.0635246 3.36119e-21)
(0.148666 -0.0633525 -3.44676e-21)
(0.150251 -0.0626801 0)
(0.151933 -0.0614269 8.61839e-21)
(0.153665 -0.0595513 -1.00079e-20)
(0.155394 -0.0570253 1.47668e-20)
(0.157056 -0.0538337 -1.24061e-20)
(0.158579 -0.0499809 0)
(0.159891 -0.0454941 -1.09223e-20)
(0.16092 -0.0404255 -1.52664e-22)
(0.161605 -0.034851 2.29035e-20)
(0.161895 -0.0288684 -9.46377e-21)
(0.161753 -0.0225925 -5.19522e-21)
(0.161165 -0.0161495 1.13629e-18)
(0.160132 -0.00966944 -1.12464e-18)
(0.158678 -0.00327913 -6.12475e-21)
(0.156841 0.00290431 -1.21237e-20)
(0.154672 0.00877884 4.22411e-20)
(0.152232 0.0142609 1.3229e-21)
(0.149588 0.0192874 -3.25045e-20)
(0.146805 0.0238153 -3.80959e-21)
(0.143947 0.0278209 -6.7587e-20)
(0.141075 0.0312972 5.48578e-20)
(0.13824 0.0342517 -5.12016e-20)
(0.135488 0.0367024 5.7063e-20)
(0.13285 0.0386712 0)
(0.130352 0.0401868 -5.41803e-20)
(0.128057 0.0413142 5.2456e-20)
(0.126319 0.042435 1.28269e-20)
(0.136853 -0.0638074 -7.70546e-22)
(0.137869 -0.0635076 1.05317e-21)
(0.139352 -0.0630536 2.52255e-21)
(0.140979 -0.0620936 -2.64287e-21)
(0.142666 -0.0605532 -7.58641e-21)
(0.144365 -0.058402 1.90574e-20)
(0.146025 -0.0556251 -1.79303e-20)
(0.147584 -0.052219 5.67844e-21)
(0.148979 -0.0481987 0)
(0.150144 -0.0436002 1.23606e-20)
(0.151019 -0.0384808 -1.08951e-20)
(0.151551 -0.0329181 9.95116e-22)
(0.151701 -0.0270074 4.82618e-21)
(0.151444 -0.0208569 -7.56421e-21)
(0.15077 -0.0145826 1.19447e-18)
(0.149687 -0.0083019 -1.18855e-18)
(0.148217 -0.00212809 -1.01068e-20)
(0.146398 0.00383523 6.84132e-21)
(0.144276 0.00949804 -1.88886e-21)
(0.141905 0.0147865 -3.87896e-20)
(0.139342 0.0196444 3.45847e-20)
(0.136647 0.0240327 7.90605e-21)
(0.133874 0.0279289 3.58205e-20)
(0.131077 0.0313252 -8.66695e-20)
(0.128304 0.0342264 1.08592e-19)
(0.125595 0.0366464 -5.28009e-20)
(0.122979 0.0386023 -5.98137e-20)
(0.120481 0.0401183 5.78994e-20)
(0.118168 0.0412559 5.46251e-20)
(0.116397 0.0423994 -6.9341e-20)
(0.125675 -0.0632557 1.55528e-21)
(0.12677 -0.0626347 2.0914e-22)
(0.128323 -0.0618803 -1.4542e-21)
(0.129982 -0.0606225 1.41712e-22)
(0.131658 -0.0587962 5.89126e-22)
(0.133303 -0.0563841 -1.26893e-21)
(0.13487 -0.0533844 1.10628e-22)
(0.136304 -0.049806 0)
(0.137548 -0.045674 0)
(0.138546 -0.0410314 1.22154e-20)
(0.139252 -0.0359394 -1.4151e-20)
(0.139624 -0.0304751 -1.00221e-21)
(0.139634 -0.0247285 0)
(0.139267 -0.0187988 -2.12228e-21)
(0.138521 -0.0127892 1.25071e-18)
(0.137407 -0.00680243 -1.2446e-18)
(0.135949 -0.000935824 -4.24401e-21)
(0.134179 0.00472207 0)
(0.132139 0.0100945 1.90232e-21)
(0.129874 0.0151183 -2.89243e-20)
(0.127433 0.0197446 2.82181e-20)
(0.124864 0.0239388 -4.06719e-21)
(0.122215 0.0276795 0)
(0.119531 0.0309579 2.45976e-22)
(0.116854 0.0337755 1.227e-20)
(0.114219 0.036142 -7.86655e-21)
(0.111651 0.0380687 6.36183e-20)
(0.109176 0.0395746 -3.35866e-23)
(0.106861 0.0407167 6.45106e-21)
(0.105064 0.0418759 -5.22898e-20)
(0.112383 -0.0614745 -4.70454e-21)
(0.113562 -0.0605213 4.1663e-21)
(0.115175 -0.0594608 0)
(0.116848 -0.0579132 -8.49984e-23)
(0.118488 -0.0558251 3.43275e-22)
(0.120051 -0.0531928 3.3014e-21)
(0.121495 -0.0500281 -7.37648e-21)
(0.122775 -0.0463514 4.32136e-21)
(0.123843 -0.0421964 0)
(0.124656 -0.0376119 0)
(0.12518 -0.0326601 -8.1228e-21)
(0.125387 -0.0274148 8.42417e-21)
(0.125262 -0.0219582 0)
(0.124799 -0.0163771 -6.68599e-22)
(0.124002 -0.0107594 1.29513e-18)
(0.122886 -0.00519021 -1.29518e-18)
(0.121475 0.000250716 8.88738e-22)
(0.119796 0.00549171 0)
(0.117883 0.0104706 1.46016e-20)
(0.115773 0.0151358 -1.4247e-20)
(0.113503 0.0194463 0)
(0.111112 0.023372 0)
(0.108638 0.0268932 4.02777e-20)
(0.106116 0.0299994 -7.45111e-20)
(0.103582 0.0326889 3.0241e-20)
(0.101065 0.0349662 -6.45523e-20)
(0.0985861 0.036837 7.11065e-20)
(0.0961687 0.0383139 0)
(0.0938788 0.0394481 -6.94283e-20)
(0.0920715 0.0406091 5.51277e-20)
(0.0964405 -0.057837 -7.9006e-21)
(0.0976946 -0.0565677 7.6609e-21)
(0.0993396 -0.0552253 -6.20054e-21)
(0.10099 -0.0534324 2.71852e-21)
(0.102554 -0.0511483 3.2842e-21)
(0.103993 -0.0483827 -1.30964e-21)
(0.105277 -0.0451598 1.7151e-21)
(0.106368 -0.0415097 6.71277e-22)
(0.107232 -0.0374729 -8.61392e-21)
(0.107841 -0.0331008 2.01963e-20)
(0.108174 -0.028454 -1.15976e-20)
(0.108219 -0.0235992 -9.64152e-21)
(0.107971 -0.0186072 1.38469e-20)
(0.107435 -0.0135493 -8.04165e-21)
(0.106622 -0.00849496 1.33417e-18)
(0.105547 -0.0035095 -1.32753e-18)
(0.104232 0.00134724 -1.13512e-20)
(0.1027 0.00602192 2.42472e-20)
(0.100975 0.0104681 -1.42712e-20)
(0.0990845 0.0146466 -3.58233e-20)
(0.0970535 0.0185249 7.20358e-20)
(0.0949092 0.0220779 -3.59463e-20)
(0.0926783 0.0252872 -4.47714e-21)
(0.0903875 0.028141 3.73559e-20)
(0.0880629 0.0306338 -1.05399e-19)