/*--------------------------------*- C++ -*----------------------------------*\
  =========                 |
  \\      /  F ield         | OpenFOAM: The Open Source CFD Toolbox
   \\    /   O peration     | Website:  https://openfoam.org
    \\  /    A nd           | Version:  12
     \\/     M anipulation  |
\*---------------------------------------------------------------------------*/
FoamFile
{
    format      ascii;
    class       volSymmTensorField;
    location    "60";
    object      UPrime2Mean;
}
// * * * * * * * * * * * * * * * * * * * * * * * * * * * * * * * * * * * * * //

dimensions      [0 2 -2 0 0 0 0];

internalField   nonuniform List<symmTensor> 
6750
(
(3.96017e-10 1.06002e-08 0 4.05088e-07 0 0)
(8.71621e-09 1.72337e-07 0 5.1794e-06 0 0)
(2.81722e-08 5.4052e-07 0 1.55531e-05 0 0)
(5.18064e-08 1.0427e-06 0 3.08828e-05 0 0)
(1.36328e-07 2.31248e-06 0 5.02235e-05 0 0)
(1.0203e-10 1.83844e-09 0 3.30577e-07 0 0)
(1.8164e-09 8.37083e-08 0 4.60351e-06 0 0)
(1.24796e-08 3.77669e-07 0 1.39657e-05 0 0)
(4.48952e-08 1.0126e-06 0 2.75252e-05 0 0)
(1.24729e-07 2.16208e-06 0 4.40461e-05 0 0)
(8.35615e-11 1.957e-09 0 3.03548e-07 0 0)
(2.46296e-09 9.94413e-08 0 4.28075e-06 0 0)
(1.88647e-08 4.80607e-07 0 1.28591e-05 0 0)
(7.01108e-08 1.28215e-06 0 2.48677e-05 0 0)
(1.76521e-07 2.52958e-06 0 3.87832e-05 0 0)
(6.93137e-11 1.79e-09 0 2.66747e-07 0 0)
(4.37768e-09 1.27212e-07 0 3.83756e-06 0 0)
(3.20993e-08 6.01139e-07 0 1.14659e-05 0 0)
(1.09152e-07 1.53017e-06 0 2.19381e-05 0 0)
(2.49026e-07 2.8605e-06 0 3.3819e-05 0 0)
(4.8791e-11 1.38557e-09 0 2.24849e-07 0 0)
(6.37382e-09 1.44012e-07 0 3.32533e-06 0 0)
(4.67848e-08 6.79022e-07 0 9.94456e-06 0 0)
(1.52624e-07 1.69241e-06 0 1.89524e-05 0 0)
(3.32756e-07 3.09197e-06 0 2.90896e-05 0 0)
(2.58743e-11 7.92394e-10 0 1.83194e-07 0 0)
(8.00383e-09 1.48633e-07 0 2.7926e-06 0 0)
(6.0881e-08 7.13102e-07 0 8.3899e-06 0 0)
(1.9746e-07 1.77292e-06 0 1.59861e-05 0 0)
(4.25809e-07 3.22264e-06 0 2.45103e-05 0 0)
(1.00156e-11 1.89379e-10 0 1.44687e-07 0 0)
(9.29951e-09 1.4493e-07 0 2.27084e-06 0 0)
(7.44154e-08 7.14026e-07 0 6.86393e-06 0 0)
(2.44026e-07 1.7865e-06 0 1.30985e-05 0 0)
(5.28778e-07 3.25693e-06 0 2.0091e-05 0 0)
(6.871e-12 -2.98299e-10 0 1.10546e-07 0 0)
(1.04121e-08 1.36006e-07 0 1.78043e-06 0 0)
(8.77725e-08 6.89204e-07 0 5.41506e-06 0 0)
(2.92579e-07 1.74035e-06 0 1.03559e-05 0 0)
(6.40684e-07 3.19126e-06 0 1.58998e-05 0 0)
(1.74219e-11 -6.2429e-10 0 8.11483e-08 0 0)
(1.14393e-08 1.23505e-07 0 1.33573e-06 0 0)
(1.00968e-07 6.42157e-07 0 4.08563e-06 0 0)
(3.42055e-07 1.63647e-06 0 7.83099e-06 0 0)
(7.5757e-07 3.01944e-06 0 1.20366e-05 0 0)
(3.90688e-11 -7.88926e-10 0 5.65361e-08 0 0)
(1.24058e-08 1.08238e-07 0 9.47437e-07 0 0)
(1.13623e-07 5.75007e-07 0 2.91223e-06 0 0)
(3.90226e-07 1.4769e-06 0 5.59326e-06 0 0)
(8.73097e-07 2.74023e-06 0 8.60624e-06 0 0)
(6.69967e-11 -8.14547e-10 0 3.66384e-08 0 0)
(1.3286e-08 9.07243e-08 0 6.23192e-07 0 0)
(1.25138e-07 4.90261e-07 0 1.92371e-06 0 0)
(4.34287e-07 1.26698e-06 0 3.7012e-06 0 0)
(9.79741e-07 2.36148e-06 0 5.70025e-06 0 0)
(9.57591e-11 -7.31002e-10 0 2.1321e-08 0 0)
(1.40249e-08 7.14678e-08 0 3.67421e-07 0 0)
(1.34857e-07 3.91391e-07 0 1.13863e-06 0 0)
(4.7155e-07 1.01611e-06 0 2.19406e-06 0 0)
(1.07049e-06 1.90049e-06 0 3.38164e-06 0 0)
(1.19755e-10 -5.64673e-10 0 1.03754e-08 0 0)
(1.45477e-08 5.1052e-08 0 1.81233e-07 0 0)
(1.42212e-07 2.82789e-07 0 5.64089e-07 0 0)
(4.99918e-07 7.36655e-07 0 1.0884e-06 0 0)
(1.14006e-06 1.38131e-06 0 1.67849e-06 0 0)
(1.30379e-10 -3.31538e-10 0 3.50565e-09 0 0)
(1.47403e-08 3.01571e-08 0 6.25692e-08 0 0)
(1.46813e-07 1.69326e-07 0 1.9602e-07 0 0)
(5.18206e-07 4.42284e-07 0 3.78659e-07 0 0)
(1.18561e-06 8.30865e-07 0 5.84207e-07 0 0)
(1.12227e-10 -8.75798e-11 0 3.76891e-10 0 0)
(1.43334e-08 9.57787e-09 0 6.53208e-09 0 0)
(1.48567e-07 5.56998e-08 0 2.09854e-08 0 0)
(5.26434e-07 1.46178e-07 0 4.0733e-08 0 0)
(1.20703e-06 2.75216e-07 0 6.29737e-08 0 0)
(1.12103e-10 6.15213e-11 0 4.77226e-10 0 0)
(1.43362e-08 -9.8923e-09 0 6.91278e-09 0 0)
(1.48563e-07 -5.6551e-08 0 2.16101e-08 0 0)
(5.26419e-07 -1.47405e-07 0 4.14279e-08 0 0)
(1.20699e-06 -2.76552e-07 0 6.36238e-08 0 0)
(1.29868e-10 3.10292e-10 0 3.80865e-09 0 0)
(1.47338e-08 -3.04703e-08 0 6.37432e-08 0 0)
(1.46793e-07 -1.70164e-07 0 1.97922e-07 0 0)
(5.18153e-07 -4.43481e-07 0 3.80765e-07 0 0)
(1.18548e-06 -8.32145e-07 0 5.86169e-07 0 0)
(1.18883e-10 5.4822e-10 0 1.08826e-08 0 0)
(1.45349e-08 -5.13459e-08 0 1.83219e-07 0 0)
(1.42175e-07 -2.83585e-07 0 5.67295e-07 0 0)
(4.99827e-07 -7.37778e-07 0 1.09193e-06 0 0)
(1.13984e-06 -1.38247e-06 0 1.68175e-06 0 0)
(9.47319e-11 7.21028e-10 0 2.20205e-08 0 0)
(1.40075e-08 -7.17283e-08 0 3.70218e-07 0 0)
(1.34808e-07 -3.92119e-07 0 1.14314e-06 0 0)
(4.71432e-07 -1.01712e-06 0 2.19898e-06 0 0)
(1.07019e-06 -1.90145e-06 0 3.38614e-06 0 0)
(6.60451e-11 8.12588e-10 0 3.7509e-08 0 0)
(1.32669e-08 -9.09422e-08 0 6.2678e-07 0 0)
(1.25086e-07 -4.90907e-07 0 1.92948e-06 0 0)
(4.34159e-07 -1.26785e-06 0 3.70744e-06 0 0)
(9.79391e-07 -2.36219e-06 0 5.70585e-06 0 0)
(3.84582e-11 7.95484e-10 0 5.75483e-08 0 0)
(1.23875e-08 -1.08407e-07 0 9.51784e-07 0 0)
(1.13574e-07 -5.75562e-07 0 2.91921e-06 0 0)
(3.90098e-07 -1.47761e-06 0 5.60072e-06 0 0)
(8.7269e-07 -2.74062e-06 0 8.61277e-06 0 0)
(1.74086e-11 6.39227e-10 0 8.22657e-08 0 0)
(1.14217e-08 -1.23611e-07 0 1.34078e-06 0 0)
(1.00915e-07 -6.42577e-07 0 4.09375e-06 0 0)
(3.41924e-07 -1.63697e-06 0 7.8394e-06 0 0)
(7.57143e-07 -3.01945e-06 0 1.20435e-05 0 0)
(7.60377e-12 3.2135e-10 0 1.11724e-07 0 0)
(1.03919e-08 -1.36009e-07 0 1.78606e-06 0 0)
(8.7694e-08 -6.89371e-07 0 5.42417e-06 0 0)
(2.92399e-07 -1.74046e-06 0 1.03651e-05 0 0)
(6.40242e-07 -3.19086e-06 0 1.59066e-05 0 0)
(1.14529e-11 -1.60484e-10 0 1.45874e-07 0 0)
(9.27883e-09 -1.44828e-07 0 2.27688e-06 0 0)
(7.43242e-08 -7.13933e-07 0 6.87388e-06 0 0)
(2.43849e-07 -1.78637e-06 0 1.3109e-05 0 0)
(5.28355e-07 -3.25639e-06 0 2.01001e-05 0 0)
(2.78696e-11 -7.62605e-10 0 1.84349e-07 0 0)
(7.98841e-09 -1.48471e-07 0 2.79889e-06 0 0)
(6.0813e-08 -7.12921e-07 0 8.40057e-06 0 0)
(1.97361e-07 -1.77288e-06 0 1.59978e-05 0 0)
(4.25485e-07 -3.22224e-06 0 2.45215e-05 0 0)
(5.10575e-11 -1.35753e-09 0 2.25947e-07 0 0)
(6.36299e-09 -1.43804e-07 0 3.33177e-06 0 0)
(4.67346e-08 -6.78766e-07 0 9.95605e-06 0 0)
(1.52557e-07 -1.69236e-06 0 1.8966e-05 0 0)
(3.32464e-07 -3.0915e-06 0 2.91039e-05 0 0)
(7.14557e-11 -1.76677e-09 0 2.67772e-07 0 0)
(4.37083e-09 -1.26982e-07 0 3.84402e-06 0 0)
(3.20653e-08 -6.00852e-07 0 1.1478e-05 0 0)
(1.09114e-07 -1.53025e-06 0 2.1954e-05 0 0)
(2.4876e-07 -2.85988e-06 0 3.38372e-05 0 0)
(8.50474e-11 -1.93929e-09 0 3.04495e-07 0 0)
(2.45683e-09 -9.91943e-08 0 4.28712e-06 0 0)
(1.88377e-08 -4.80291e-07 0 1.28718e-05 0 0)
(7.00622e-08 -1.28207e-06 0 2.48858e-05 0 0)
(1.7626e-07 -2.52824e-06 0 3.8806e-05 0 0)
(1.02571e-10 -1.82946e-09 0 3.31427e-07 0 0)
(1.80809e-09 -8.34616e-08 0 4.6096e-06 0 0)
(1.24518e-08 -3.773e-07 0 1.39787e-05 0 0)
(4.48357e-08 -1.01227e-06 0 2.75453e-05 0 0)
(1.24529e-07 -2.15956e-06 0 4.40735e-05 0 0)
(3.94769e-10 -1.0576e-08 0 4.05728e-07 0 0)
(8.70016e-09 -1.71949e-07 0 5.18441e-06 0 0)
(2.8139e-08 -5.39666e-07 0 1.55646e-05 0 0)
(5.17625e-08 -1.041e-06 0 3.09021e-05 0 0)
(1.36205e-07 -2.30743e-06 0 5.02517e-05 0 0)
(1.80342e-06 1.36902e-05 0 0.000112365 0 0)
(4.24285e-06 2.46979e-05 0 0.000152152 0 0)
(7.34192e-06 3.67581e-05 0 0.000193026 0 0)
(1.04556e-05 4.82425e-05 2.98173e-25 0.000232738 2.96949e-24 4.19492e-42)
(1.34859e-05 5.89151e-05 0 0.000268773 0 0)
(1.63619e-05 6.84893e-05 0 0.000299294 0 0)
(1.89872e-05 7.65996e-05 -1.88679e-23 0.00032281 -1.78255e-22 1.5914e-38)
(2.12706e-05 8.28952e-05 1.87327e-23 0.000337957 1.76247e-22 1.6198e-38)
(2.32277e-05 8.72935e-05 1.28105e-25 0.000343755 1.27028e-24 8.99717e-43)
(2.49267e-05 8.98472e-05 6.35867e-24 0.000339945 7.15044e-23 3.34767e-39)
(2.62789e-05 9.00882e-05 -5.15106e-25 0.000324551 -2.65944e-24 7.87063e-42)
(2.74134e-05 8.82831e-05 -4.04314e-25 0.000298636 -2.14764e-24 9.27321e-42)
(2.83874e-05 8.45903e-05 -1.37086e-24 0.000263823 -2.24611e-23 7.86077e-40)
(2.92939e-05 7.92249e-05 -5.82225e-25 0.000222494 -1.52329e-23 6.21588e-40)
(3.02207e-05 7.23944e-05 -2.98664e-25 0.000177849 -2.01863e-23 2.66503e-39)
(3.12536e-05 6.42666e-05 -3.80585e-25 0.000133543 4.15388e-24 2.66513e-39)
(3.24788e-05 5.49526e-05 -5.38411e-27 9.32016e-05 4.06101e-24 3.35546e-40)
(3.39808e-05 4.45141e-05 -5.38792e-25 5.9909e-05 8.66832e-24 2.21793e-40)
(3.58474e-05 3.30105e-05 -5.39991e-25 3.58271e-05 -1.99869e-24 9.66379e-42)
(3.818e-05 2.05305e-05 -5.62875e-25 2.19125e-05 -2.0838e-24 8.31524e-42)
(4.09894e-05 7.14729e-06 3.70307e-24 1.7859e-05 -4.60725e-23 7.49165e-40)
(4.42148e-05 -6.84231e-06 -6.75384e-26 2.25593e-05 7.7293e-25 1.4048e-43)
(4.77937e-05 -2.10467e-05 1.35888e-23 3.40852e-05 -1.03119e-22 1.67856e-39)
(5.15984e-05 -3.50018e-05 -1.45939e-23 5.01271e-05 1.08812e-22 1.64896e-39)
(5.54414e-05 -4.82e-05 0 6.83269e-05 0 0)
(5.91044e-05 -6.01389e-05 0 8.65221e-05 0 0)
(6.236e-05 -7.03714e-05 -2.1765e-25 0.000102931 1.50366e-24 2.282e-43)
(6.49916e-05 -7.85169e-05 0 0.000116235 0 0)
(6.68418e-05 -8.42572e-05 0 0.000125604 0 0)
(6.77871e-05 -8.75045e-05 0 0.000130474 0 0)
(2.8361e-06 1.87661e-05 0 0.000132743 0 0)
(5.53125e-06 3.02467e-05 0 0.00017431 0 0)
(8.49388e-06 4.15666e-05 0 0.000213174 0 0)
(1.14502e-05 5.22141e-05 -3.04306e-25 0.00024905 -2.92962e-24 3.72975e-42)
(1.4379e-05 6.21267e-05 0 0.000280606 0 0)
(1.71861e-05 7.09804e-05 0 0.000306577 0 0)
(1.97794e-05 7.84383e-05 1.90861e-23 0.000325739 1.7569e-22 1.37217e-38)
(2.20714e-05 8.41811e-05 -1.89492e-23 0.000336939 -1.75771e-22 1.43736e-38)
(2.41644e-05 8.83252e-05 -1.21213e-25 0.000339667 -1.2305e-24 7.92576e-43)
(2.5981e-05 9.06066e-05 0 0.000333247 0 0)
(2.75665e-05 9.08572e-05 0 0.000316379 0 0)
(2.89854e-05 8.92502e-05 -3.78025e-24 0.000290304 -5.39947e-23 2.38896e-39)
(3.02734e-05 8.58849e-05 2.59628e-24 0.000256473 4.43984e-23 2.40401e-39)
(3.14976e-05 8.09231e-05 0 0.000217059 0 0)
(3.27125e-05 7.4511e-05 4.11734e-25 0.000174877 -5.99315e-23 1.97202e-38)
(3.39715e-05 6.67706e-05 -2.49e-24 0.000133084 1.58094e-23 1.97047e-38)
(3.53352e-05 5.77959e-05 0 9.48019e-05 0 0)
(3.6873e-05 4.76603e-05 -8.11656e-25 6.27279e-05 -1.83281e-23 9.94385e-40)
(3.86618e-05 3.64416e-05 4.35062e-25 3.88054e-05 2.93932e-23 1.00431e-39)
(4.07639e-05 2.42318e-05 0 2.40076e-05 0 0)
(4.324e-05 1.11664e-05 0 1.8288e-05 0 0)
(4.6091e-05 -2.49128e-06 5.18798e-26 2.0833e-05 -7.21806e-25 1.23671e-43)
(4.92501e-05 -1.64059e-05 -6.93012e-24 3.01157e-05 9.38597e-23 1.53394e-39)
(5.26315e-05 -3.01673e-05 8.02568e-24 4.41994e-05 -1.00461e-22 1.56066e-39)
(5.60964e-05 -4.33305e-05 0 6.10139e-05 0 0)
(5.94683e-05 -5.54499e-05 0 7.85822e-05 0 0)
(6.25538e-05 -6.61208e-05 2.03473e-25 9.51944e-05 -1.45432e-24 2.02674e-43)
(6.51618e-05 -7.49999e-05 0 0.000109498 0 0)
(6.7152e-05 -8.17864e-05 0 0.000120529 0 0)
(6.83705e-05 -8.63528e-05 0 0.000127767 0 0)
(3.96339e-06 2.35549e-05 0 0.00014839 0 0)
(6.55546e-06 3.41776e-05 0 0.000187269 0 0)
(9.43837e-06 4.48336e-05 0 0.000223016 0 0)
(1.24132e-05 5.50981e-05 2.02701e-23 0.000255838 1.88823e-22 1.5082e-38)
(1.53976e-05 6.47007e-05 -2.18281e-23 0.000284477 -1.94093e-22 1.544e-38)
(1.82916e-05 7.32861e-05 2.16495e-23 0.000307676 1.94112e-22 1.53299e-38)
(2.10271e-05 8.05599e-05 -2.15653e-23 0.000324261 -1.94709e-22 1.56196e-38)
(2.35336e-05 8.62382e-05 2.84814e-25 0.000333179 2.8332e-24 3.59238e-42)
(2.59494e-05 9.05053e-05 0 0.00033418 0 0)
(2.81421e-05 9.29537e-05 0 0.000326308 0 0)
(3.02173e-05 9.3559e-05 -1.56238e-25 0.000308857 -2.26295e-24 2.89124e-42)
(3.21766e-05 9.23765e-05 0 0.000283012 0 0)
(3.40404e-05 8.94671e-05 0 0.000250148 0 0)
(3.58359e-05 8.49256e-05 7.55885e-27 0.000212292 -2.73625e-25 1.33664e-43)
(3.75731e-05 7.88378e-05 1.53371e-23 0.000172004 -1.09147e-22 5.63098e-38)
(3.92626e-05 7.12851e-05 -1.97427e-23 0.000132122 3.55347e-23 5.6309e-38)
(4.09282e-05 6.23464e-05 -3.00502e-26 9.54446e-05 -5.44051e-26 8.90858e-44)
(4.26141e-05 5.21081e-05 0 6.44003e-05 0 0)
(4.43899e-05 4.06821e-05 0 4.07764e-05 0 0)
(4.63362e-05 2.82194e-05 -7.92178e-26 2.55457e-05 -1.16823e-24 8.69753e-43)
(4.85157e-05 1.49269e-05 0 1.88328e-05 0 0)
(5.09565e-05 1.05888e-06 0 1.9954e-05 0 0)
(5.36487e-05 -1.30381e-05 -4.66019e-26 2.7641e-05 1.56623e-24 4.77832e-43)
(5.65399e-05 -2.69719e-05 -4.15734e-24 4.02091e-05 1.00343e-22 1.54624e-39)
(5.95314e-05 -4.03297e-05 5.21764e-24 5.57994e-05 -1.02742e-22 1.51757e-39)
(6.24861e-05 -5.27051e-05 -7.27406e-24 7.25907e-05 1.00403e-22 1.16997e-39)
(6.52468e-05 -6.37284e-05 7.36425e-24 8.89577e-05 -9.80627e-23 1.13919e-39)
(6.76492e-05 -7.3087e-05 0 0.000103562 0 0)
(6.95419e-05 -8.05166e-05 0 0.000115422 0 0)
(7.05229e-05 -8.58967e-05 0 0.000124316 0 0)
(5.10095e-06 2.80795e-05 0 0.000162675 0 0)
(7.63485e-06 3.80941e-05 -4.17794e-23 0.000199025 -3.95699e-22 7.05118e-38)
(1.05836e-05 4.84766e-05 2.43771e-23 0.000232086 2.11373e-22 1.8668e-38)
(1.36848e-05 5.857e-05 5.06281e-23 0.00026209 4.2769e-22 7.29685e-38)
(1.68279e-05 6.80099e-05 -5.15312e-23 0.000287851 -4.30305e-22 7.17737e-38)
(1.99416e-05 7.64929e-05 2.52406e-23 0.000308224 2.12744e-22 1.7391e-38)
(2.29815e-05 8.3768e-05 0 0.000322173 0 0)
(2.58945e-05 8.95827e-05 6.57631e-25 0.000328807 6.277e-24 1.52358e-41)
(2.88324e-05 9.41232e-05 0 0.000328032 0 0)
(3.16501e-05 9.69163e-05 0 0.000318738 0 0)
(3.44619e-05 9.79894e-05 3.41687e-24 0.000300769 7.97965e-23 3.49104e-39)
(3.72235e-05 9.73109e-05 -9.42677e-25 0.000275206 -6.64667e-23 3.11201e-39)
(3.99308e-05 9.48998e-05 0 0.000243363 0 0)
(4.25589e-05 9.07854e-05 -3.47165e-26 0.000207118 2.87435e-25 1.47327e-43)
(4.50603e-05 8.49971e-05 4.44691e-23 0.000168783 -1.65084e-22 1.13347e-37)
(4.73903e-05 7.75769e-05 -5.2306e-23 0.00013089 6.28654e-23 1.13345e-37)
(4.95265e-05 6.85882e-05 5.96434e-26 9.59167e-05 4.8491e-26 9.81928e-44)
(5.14839e-05 5.81288e-05 0 6.60316e-05 0 0)
(5.3322e-05 4.63439e-05 6.67796e-24 4.2864e-05 2.86578e-23 1.0899e-39)
(5.51344e-05 3.34319e-05 -5.4342e-24 2.73564e-05 -3.63304e-23 9.54308e-40)
(5.70107e-05 1.96402e-05 -1.48349e-25 1.97146e-05 -1.39077e-24 8.27612e-43)
(5.90181e-05 5.27509e-06 0 1.94609e-05 0 0)
(6.11937e-05 -9.3022e-06 1.36945e-25 2.5554e-05 3.21835e-24 2.31919e-42)
(6.35284e-05 -2.36994e-05 0 3.65541e-05 0 0)
(6.59635e-05 -3.7517e-05 1.4885e-24 5.08183e-05 -1.03165e-22 1.50613e-39)
(6.8398e-05 -5.03713e-05 -5.82791e-24 6.66868e-05 2.00682e-22 5.31687e-39)
(7.07106e-05 -6.19178e-05 8.40935e-24 8.26293e-05 -1.92004e-22 4.50987e-39)
(7.27758e-05 -7.18674e-05 6.01575e-24 9.73302e-05 -8.91152e-23 8.21729e-40)
(7.44245e-05 -7.99743e-05 -1.03865e-23 0.00010979 1.7172e-22 3.641e-39)
(7.48469e-05 -8.61266e-05 0 0.000120111 0 0)
(6.39434e-06 3.28319e-05 0 0.00017624 0 0)
(9.01001e-06 4.25926e-05 5.29767e-23 0.000210004 4.36951e-22 8.11423e-38)
(1.21299e-05 5.28538e-05 -5.67278e-23 0.000240249 -4.43637e-22 7.84313e-38)
(1.54474e-05 6.2844e-05 0 0.000267252 0 0)
(1.88672e-05 7.22186e-05 0 0.000289979 0 0)
(2.23521e-05 8.07282e-05 8.88173e-25 0.000307413 7.1415e-24 1.78295e-41)
(2.58737e-05 8.8137e-05 0 0.000318667 0 0)
(2.94076e-05 9.42333e-05 -6.3375e-25 0.000323027 -6.57295e-24 1.67336e-41)
(3.30915e-05 9.91307e-05 7.80446e-24 0.000320419 9.91214e-23 3.88181e-39)
(3.68016e-05 0.000102366 -5.36855e-24 0.000309792 -9.43009e-23 3.93751e-39)
(4.06279e-05 0.00010396 -1.65328e-24 0.000291418 -8.34323e-23 3.57405e-39)
(4.44921e-05 0.000103822 -1.29728e-24 0.000266263 7.19704e-23 3.38799e-39)
(4.83498e-05 0.000101924 -1.33425e-25 0.000235588 1.79155e-24 2.85707e-42)
(5.21097e-05 9.82356e-05 1.10908e-25 0.000201117 -6.54919e-25 6.4238e-43)
(5.56519e-05 9.2735e-05 9.07746e-23 0.000164914 -2.29e-22 1.9235e-37)
(5.88613e-05 8.54276e-05 -1.03178e-22 0.000129198 9.81707e-23 1.92346e-37)
(6.16566e-05 7.63586e-05 -1.82064e-25 9.61302e-05 -7.38147e-26 4.38719e-43)
(6.40168e-05 6.56306e-05 3.65593e-25 6.76081e-05 5.64724e-25 1.51593e-42)
(6.59905e-05 5.34129e-05 -1.09718e-23 4.50886e-05 -2.88971e-23 1.22461e-39)
(6.76843e-05 3.99418e-05 9.63791e-24 2.94653e-05 3.81259e-23 1.14143e-39)
(6.92276e-05 2.55104e-05 8.61051e-24 2.10155e-05 4.60792e-23 9.31336e-40)
(7.07401e-05 1.04676e-05 -6.90165e-24 1.94333e-05 -5.13927e-23 8.61622e-40)
(7.23123e-05 -4.79841e-06 -2.95438e-25 2.39039e-05 -3.33085e-24 2.54716e-42)
(7.39865e-05 -1.9882e-05 0 3.32337e-05 0 0)
(7.57491e-05 -3.43829e-05 1.75635e-25 4.60064e-05 3.37253e-24 1.86625e-42)
(7.75361e-05 -4.79259e-05 0 6.0742e-05 0 0)
(7.92617e-05 -6.01805e-05 0 7.60248e-05 0 0)
(8.08393e-05 -7.08709e-05 -3.7025e-24 9.05908e-05 1.89247e-22 4.2756e-39)
(8.20949e-05 -7.97634e-05 4.39677e-24 0.000103424 -1.73855e-22 3.9065e-39)
(8.16959e-05 -8.67937e-05 0 0.000114972 0 0)
(8.0057e-06 3.81188e-05 5.05189e-23 0.000188683 4.31235e-22 8.00401e-38)
(1.08499e-05 4.78602e-05 -9.62513e-23 0.000219493 -6.97102e-22 1.97099e-37)
(1.42474e-05 5.80796e-05 3.36762e-23 0.000246713 2.3682e-22 2.12308e-38)
(1.79019e-05 6.80452e-05 0 0.000270583 0 0)
(2.17506e-05 7.74586e-05 3.27296e-23 0.000290214 2.41108e-22 1.98922e-38)
(2.57858e-05 8.60985e-05 -3.02829e-23 0.000304699 -2.36841e-22 1.91394e-38)
(2.99905e-05 9.37273e-05 2.58053e-23 0.00031328 2.27799e-22 1.75062e-38)
(3.44056e-05 0.000100216 -2.25155e-23 0.000315445 -2.32617e-22 1.9038e-38)
(3.90934e-05 0.0001055 0 0.000311026 0 0)
(4.40029e-05 0.000109223 -2.97012e-25 0.000299248 -6.36211e-24 1.60407e-41)
(4.91689e-05 0.000111352 -9.79421e-26 0.000280629 8.74641e-23 3.66117e-39)
(5.44842e-05 0.000111757 1.60192e-24 0.000256051 -4.08973e-23 1.01482e-39)
(5.9845e-05 0.000110362 2.86665e-25 0.000226717 -5.57597e-24 2.55562e-41)
(6.50782e-05 0.000107086 5.26297e-24 0.000194192 -2.27028e-23 7.18807e-40)
(6.9974e-05 0.000101863 1.52092e-22 0.000160296 -3.02342e-22 2.95311e-37)
(7.43294e-05 9.46621e-05 -1.69976e-22 0.00012694 1.42577e-22 2.95281e-37)
(7.79917e-05 8.55095e-05 8.46233e-24 9.59736e-05 1.98689e-24 4.93398e-40)
(8.08955e-05 7.4505e-05 -1.02959e-24 6.90237e-05 -1.11622e-24 1.67779e-41)
(8.3077e-05 6.1832e-05 7.87973e-24 4.73658e-05 1.41725e-23 2.92272e-40)
(8.46613e-05 4.77554e-05 -1.46582e-23 3.18268e-05 -3.99939e-23 1.35445e-39)
(8.58249e-05 3.26073e-05 -8.37446e-25 2.27358e-05 -2.92816e-24 4.19064e-42)
(8.67515e-05 1.67741e-05 0 1.99309e-05 0 0)
(8.75983e-05 6.74606e-07 1.83534e-23 2.28077e-05 1.08289e-22 2.80068e-39)
(8.84701e-05 -1.52639e-05 -1.54254e-23 3.04105e-05 -1.18574e-22 2.91537e-39)
(8.94072e-05 -3.06292e-05 1.14473e-23 4.15523e-05 1.14536e-22 2.12321e-39)
(9.03881e-05 -4.50436e-05 -8.27625e-24 5.49439e-05 -1.11782e-22 1.94217e-39)
(9.13623e-05 -5.81766e-05 -4.28414e-25 6.93064e-05 -6.54018e-24 6.07441e-42)
(9.22858e-05 -6.97563e-05 -2.80896e-24 8.34526e-05 -9.88305e-23 1.21535e-39)
(9.29872e-05 -7.95561e-05 7.02859e-24 9.63778e-05 2.70543e-22 9.41349e-39)
(9.15082e-05 -8.76253e-05 -4.66923e-24 0.000108858 -1.78296e-22 4.4557e-39)
(1.0108e-05 4.4133e-05 -3.12397e-23 0.000199485 -2.24537e-22 2.03027e-38)
(1.33416e-05 5.40217e-05 4.06276e-23 0.000227006 2.59878e-22 2.59201e-38)
(1.71515e-05 6.42785e-05 4.19085e-23 0.000251068 2.66772e-22 2.5091e-38)
(2.13007e-05 7.43024e-05 -4.25677e-23 0.000271756 -2.75984e-22 2.57699e-38)
(2.57663e-05 8.38387e-05 3.76632e-23 0.000288272 2.59188e-22 2.15523e-38)
(3.05665e-05 9.26755e-05 -3.73796e-23 0.000299833 -2.79428e-22 2.4914e-38)
(3.56994e-05 0.000100571 -1.03509e-24 0.000305789 -8.32964e-24 2.01956e-41)
(4.12931e-05 0.000107495 0 0.000305863 0 0)
(4.73004e-05 0.000113167 7.60222e-24 0.000299733 1.15826e-22 4.5982e-39)
(5.37659e-05 0.000117376 -4.0524e-25 0.000287019 2.80864e-24 2.63557e-42)
(6.065e-05 0.000120015 -6.2887e-25 0.000268335 2.01335e-24 1.86003e-42)
(6.78152e-05 0.000120936 5.91314e-24 0.000244523 -8.75433e-23 4.29823e-39)
(7.50776e-05 0.000120018 5.01807e-24 0.000216712 -3.0424e-23 7.31043e-40)
(8.21644e-05 0.000117138 -1.07267e-23 0.00018631 3.77908e-23 1.82038e-39)
(8.87571e-05 0.000112189 2.2666e-22 0.000154887 -3.93852e-22 4.40548e-37)
(9.45481e-05 0.00010511 -2.41389e-22 0.000124064 1.93125e-22 4.06935e-37)
(9.93001e-05 9.59038e-05 -1.57364e-23 9.53845e-05 -1.58476e-24 1.20573e-39)
(0.000102896 8.46591e-05 1.1939e-23 7.02118e-05 9.39045e-24 6.39575e-40)
(0.000105358 7.15627e-05 2.08087e-23 4.96353e-05 2.93031e-23 1.52153e-39)
(0.000106834 5.68955e-05 1.26588e-24 3.44001e-05 1.26323e-24 1.30686e-42)
(0.000107558 4.10178e-05 1.07846e-24 2.48627e-05 1.26779e-24 1.23629e-42)
(0.000107787 2.43472e-05 -1.60038e-23 2.09813e-05 -5.46818e-23 1.08658e-39)
(0.00010776 7.33282e-06 0 2.23396e-05 0 0)
(0.000107656 -9.57247e-06 -8.62325e-25 2.82053e-05 -3.64164e-24 2.91496e-42)
(0.000107581 -2.59374e-05 1.78619e-23 3.76163e-05 1.0827e-22 1.97567e-39)
(0.000107564 -4.13724e-05 -1.54966e-23 4.94785e-05 -1.1671e-22 2.20086e-39)
(0.000107596 -5.55383e-05 1.11951e-23 6.26731e-05 1.09317e-22 1.61213e-39)
(0.000107675 -6.81502e-05 -8.38429e-24 7.61029e-05 -9.94581e-23 1.38485e-39)
(0.000107642 -7.89856e-05 -7.8725e-24 8.88046e-05 -8.96474e-23 1.03124e-39)
(0.000104818 -8.82941e-05 7.50951e-24 0.000101842 9.66527e-23 1.32699e-39)
(1.29165e-05 5.10295e-05 0 0.000208191 0 0)
(1.67262e-05 6.11813e-05 4.30793e-23 0.000232198 2.44808e-22 2.12092e-38)
(2.11162e-05 7.15396e-05 -5.33026e-23 0.000253044 -3.05977e-22 3.1513e-38)
(2.59564e-05 8.16836e-05 4.91154e-23 0.00027053 2.93023e-22 2.69129e-38)
(3.12672e-05 9.1389e-05 -4.45306e-23 0.000283936 -2.83145e-22 2.44855e-38)
(3.70947e-05 0.00010045 3.68275e-23 0.000292614 2.61214e-22 2.00187e-38)
(4.34659e-05 0.000108634 -3.22789e-23 0.000296043 -2.63026e-22 2.05711e-38)
(5.05531e-05 0.000115936 -1.71052e-24 0.000294118 -1.70017e-23 8.53537e-41)
(5.82717e-05 0.000121979 -5.77046e-25 0.000286445 -8.06645e-24 2.0341e-41)
(6.67037e-05 0.000126629 -2.57298e-25 0.000273019 -7.44614e-24 1.91975e-41)
(7.57431e-05 0.000129728 1.63973e-25 0.000254477 -6.49139e-24 1.79578e-41)
(8.5206e-05 0.000131117 -2.49436e-25 0.000231635 2.78272e-24 4.14351e-42)
(9.48103e-05 0.000130642 6.7703e-24 0.000205544 -3.77071e-23 1.03888e-39)
(0.000104164 0.000128146 -3.99437e-24 0.000177442 1.52129e-23 2.56524e-40)
(0.000112822 0.00012349 2.87433e-22 0.000148662 -4.70122e-22 5.55289e-37)
(0.000120354 0.000116583 -3.28855e-22 0.000120539 2.6477e-22 5.96403e-37)
(0.000126427 0.000107397 -6.39787e-24 9.43264e-05 -6.15557e-25 1.22664e-40)
(0.000130865 9.60024e-05 1.11423e-23 7.11314e-05 6.83675e-24 4.34219e-40)
(0.000133677 8.25749e-05 -8.04354e-25 5.18564e-05 -9.2852e-25 1.76723e-42)
(0.00013504 6.73979e-05 -3.06819e-24 3.71523e-05 -5.0867e-24 2.41686e-41)
(0.00013525 5.08459e-05 -1.46642e-24 2.73816e-05 -3.0863e-24 5.17368e-42)
(0.000134654 3.33594e-05 -1.34905e-24 2.2598e-05 -3.46326e-24 4.40205e-42)
(0.000133581 1.54142e-05 -2.42962e-24 2.25497e-05 -7.39335e-24 1.49469e-41)
(0.000132303 -2.51012e-06 3.45123e-23 2.67092e-05 1.27671e-22 3.39529e-39)
(0.000131001 -1.99593e-05 -2.9935e-23 3.43291e-05 -1.32225e-22 3.29138e-39)
(0.000129764 -3.65242e-05 2.32866e-23 4.45159e-05 1.18472e-22 2.14503e-39)
(0.000128633 -5.18503e-05 -1.84706e-23 5.63181e-05 -1.10137e-22 1.84322e-39)
(0.000127658 -6.56287e-05 1.35858e-23 6.87509e-05 9.50516e-23 1.165e-39)
(0.000126684 -7.76263e-05 -1.36704e-23 8.091e-05 -1.10758e-22 1.67151e-39)
(0.000122231 -8.83938e-05 0 9.40879e-05 0 0)
(1.67031e-05 5.8912e-05 0 0.000214408 0 0)
(2.13128e-05 6.93906e-05 3.54672e-24 0.000234751 1.7815e-23 1.04186e-40)
(2.64891e-05 7.98862e-05 -4.88968e-23 0.000252365 -2.53803e-22 1.99246e-38)
(3.22577e-05 9.01694e-05 7.11873e-25 0.00026665 3.16664e-24 1.16948e-41)
(3.8688e-05 0.000100042 5.23511e-23 0.000276984 3.05394e-22 2.66289e-38)
(4.58572e-05 0.000109305 2.84188e-24 0.000282856 1.87963e-23 9.98294e-41)
(5.3831e-05 0.000117748 2.56844e-24 0.000283898 1.89865e-23 9.68863e-41)
(6.2794e-05 0.000125338 -1.31601e-23 0.000280088 -1.25374e-22 4.40295e-39)
(7.26734e-05 0.000131689 1.12237e-23 0.000271095 1.48353e-22 6.64478e-39)
(8.35376e-05 0.000136698 -9.4696e-26 0.000257199 -1.84703e-25 3e-46)
(9.52239e-05 0.000140184 9.62763e-25 0.000239031 -5.55778e-23 1.20421e-39)
(0.000107478 0.000141981 -3.46161e-24 0.000217381 5.01387e-23 1.21871e-39)
(0.0001199 0.000141917 2.96272e-24 0.00019321 -1.67858e-23 1.91615e-40)
(0.000131961 0.000139811 -4.4029e-24 0.000167587 1.5592e-23 2.53728e-40)
(0.000143068 0.000135499 3.49733e-22 0.000141613 -5.83976e-22 7.59635e-37)
(0.000152655 0.000128855 -3.86311e-22 0.000116349 3.35361e-22 7.59633e-37)
(0.00016028 0.00011982 -7.07123e-24 9.27737e-05 2.18288e-25 1.55436e-40)
(0.000165705 0.000108427 8.10351e-24 7.17488e-05 4.07703e-24 1.94059e-40)
(0.000168926 9.4828e-05 -1.39257e-23 5.39916e-05 -1.37199e-23 4.05978e-40)
(0.000170156 7.92914e-05 1.78856e-23 4.00501e-05 2.59893e-23 7.06197e-40)
(0.000169765 6.21915e-05 -7.58667e-26 3.02734e-05 -1.88935e-26 2.45029e-46)
(0.000168197 4.3981e-05 -2.58884e-23 2.47866e-05 -5.60389e-23 1.15684e-39)
(0.000165891 2.51563e-05 2.62334e-23 2.34776e-05 7.0066e-23 1.42192e-39)
(0.000163218 6.22249e-06 2.7651e-24 2.6003e-05 7.91134e-24 1.40182e-41)
(0.00016045 -1.23394e-05 2.21072e-24 3.1816e-05 8.00727e-24 1.17163e-41)
(0.000157745 -3.00973e-05 -3.22663e-23 4.02238e-05 -1.23887e-22 2.38831e-39)
(0.000155205 -4.66709e-05 5.51902e-25 5.04406e-05 3.26259e-24 1.31134e-41)
(0.000152939 -6.17244e-05 2.65113e-23 6.16186e-05 1.31819e-22 2.45256e-39)
(0.000150801 -7.50023e-05 0 7.29297e-05 0 0)
(0.000144422 -8.74489e-05 0 8.58125e-05 0 0)
(2.18144e-05 6.78193e-05 0 0.000217768 0 0)
(2.74927e-05 7.86264e-05 -7.15794e-23 0.000234365 -3.21234e-22 3.21325e-38)
(3.37017e-05 8.92452e-05 8.07976e-25 0.000248758 2.95265e-24 1.08192e-41)
(4.06812e-05 9.96345e-05 7.57258e-25 0.000259882 3.20182e-24 1.29944e-41)
(4.85581e-05 0.000109625 1.20407e-22 0.000267224 6.34525e-22 1.0644e-37)
(5.74385e-05 0.000119017 -5.68551e-23 0.000270413 -3.31105e-22 2.85207e-38)
(6.74451e-05 0.00012764 -2.91403e-24 0.000269239 -2.00331e-23 1.05838e-40)
(7.87317e-05 0.00013539 0 0.000263714 0 0)
(9.12757e-05 0.000141942 1.22577e-23 0.000253673 1.36978e-22 5.28393e-39)
(0.000105092 0.000147197 -7.67784e-24 0.000239569 -1.31504e-22 5.41047e-39)
(0.000119964 0.000150978 2.06663e-25 0.000222026 6.00027e-23 1.32386e-39)
(0.000135541 0.000153121 -7.02187e-25 0.000201799 -2.91902e-24 3.08018e-42)
(0.000151287 0.000153449 5.4093e-24 0.00017975 -4.45729e-23 1.23122e-39)
(0.000166512 0.000151769 -2.61364e-25 0.000156778 1.03402e-24 1.03449e-42)
(0.000180458 0.000147894 3.77568e-22 0.000133757 -6.97849e-22 9.72168e-37)
(0.000192409 0.000141663 -4.19447e-22 0.000111495 4.20261e-22 9.73046e-37)
(0.000201808 0.000132969 4.56611e-25 9.07122e-05 -6.20887e-26 7.12315e-43)
(0.00020835 0.0001218 1.58384e-23 7.20367e-05 7.09441e-24 5.9139e-40)
(0.000212021 0.000108262 5.34551e-25 5.60064e-05 6.58381e-26 3.12613e-42)
(0.000213079 9.25913e-05 -1.98266e-23 4.30593e-05 -2.61232e-23 7.74425e-40)
(0.000211979 7.51445e-05 3.3571e-23 3.35147e-05 5.37755e-23 1.69106e-39)
(0.000209275 5.63745e-05 -2.96957e-23 2.75459e-05 -5.9539e-23 1.4644e-39)
(0.000205525 3.67913e-05 0 2.5155e-05 0 0)
(0.000201219 1.69227e-05 -3.089e-24 2.61599e-05 -8.229e-24 1.53138e-41)
(0.000196727 -2.72233e-06 4.6774e-23 3.01992e-05 1.30769e-22 3.11413e-39)
(0.000192287 -2.16839e-05 -8.60295e-23 3.67694e-05 -2.70986e-22 1.20156e-38)
(0.000188074 -3.95495e-05 4.56054e-25 4.52531e-05 3.5151e-24 1.44975e-41)
(0.000184262 -5.59474e-05 -1.87768e-24 5.49509e-05 -4.6071e-24 2.73122e-42)
(0.000180711 -7.0598e-05 2.82899e-23 6.51355e-05 1.16356e-22 1.8016e-39)
(0.000172108 -8.49243e-05 0 7.72911e-05 0 0)
(2.86825e-05 7.76962e-05 -1.04643e-23 0.00021794 -4.12095e-23 5.14149e-40)
(3.57473e-05 8.87587e-05 0 0.000230779 0 0)
(4.32834e-05 9.94351e-05 -5.03577e-24 0.000241987 -2.0964e-23 1.22783e-40)
(5.18091e-05 0.000109847 7.4774e-23 0.000250036 3.24469e-22 2.6892e-38)
(6.15139e-05 0.000119846 -7.68709e-23 0.000254516 -3.56601e-22 3.16773e-38)
(7.25276e-05 0.000129232 6.8828e-23 0.000255189 3.51303e-22 2.96387e-38)
(8.50672e-05 0.000137912 -6.19923e-23 0.000252028 -3.53128e-22 3.04773e-38)
(9.91823e-05 0.000145653 -2.49022e-23 0.000245017 -1.66916e-22 6.94155e-39)
(0.000114945 0.000152261 4.16517e-23 0.000234233 3.40501e-22 3.09759e-38)
(0.000132285 0.000157627 -7.09744e-25 0.000220205 3.47107e-24 4.24676e-42)
(0.000150921 0.000161602 -6.83047e-24 0.000203552 -1.26988e-22 5.5983e-39)
(0.000170381 0.000164037 -7.34793e-25 0.000184982 5.52604e-23 1.34287e-39)
(0.000189972 0.000164763 9.57257e-25 0.000165247 -2.56722e-23 3.74642e-40)
(0.000208824 0.000163585 5.08769e-24 0.000145079 -2.82042e-23 7.23046e-40)
(0.000225994 0.000160296 3.53907e-22 0.000125139 -8.13309e-22 1.19876e-36)
(0.000240605 0.00015469 -4.042e-22 0.000105999 5.17225e-22 1.23206e-36)
(0.000251976 0.000146605 1.01493e-23 8.814e-05 -2.18685e-24 4.04021e-40)
(0.000259737 0.00013596 8.46523e-24 7.19759e-05 3.59265e-24 1.39625e-40)
(0.000263872 0.000122797 -1.59627e-23 5.78704e-05 -1.39361e-23 6.4031e-40)
(0.000264692 0.000107296 3.87866e-23 4.61473e-05 4.63121e-23 2.43041e-39)
(0.000262747 8.97822e-05 3.45754e-24 3.70812e-05 1.86544e-24 1.96593e-42)
(0.000258716 7.06936e-05 -6.20783e-23 3.08712e-05 -1.11981e-22 5.23787e-39)
(0.000253293 5.05456e-05 3.13676e-23 2.76084e-05 6.60853e-23 1.35656e-39)
(0.000247095 2.98852e-05 6.03873e-23 2.72474e-05 1.33426e-22 4.01126e-39)
(0.000240605 9.24917e-06 -5.51177e-23 2.95947e-05 -1.40221e-22 3.90087e-39)
(0.00023415 -1.08708e-05 5.05072e-23 3.43205e-05 1.34739e-22 2.86972e-39)
(0.000227985 -3.00249e-05 -4.8876e-23 4.09792e-05 -1.43411e-22 3.12127e-39)
(0.00022236 -4.77953e-05 2.74471e-24 4.90175e-05 7.91765e-24 8.40561e-42)
(0.000217137 -6.38758e-05 0 5.78257e-05 0 0)
(0.00020602 -8.02419e-05 -6.26466e-24 6.88429e-05 -1.36395e-23 2.48563e-41)
(3.78391e-05 8.83705e-05 1.25639e-23 0.000214637 4.33515e-23 5.56036e-40)
(4.66623e-05 9.95385e-05 -1.07555e-22 0.000223777 -3.73773e-22 3.80713e-38)
(5.58693e-05 0.000110148 1.01238e-22 0.00023189 3.6714e-22 3.49975e-38)
(6.63292e-05 0.000120439 6.07699e-24 0.000236999 2.32119e-23 1.33151e-40)