/*--------------------------------*- C++ -*----------------------------------*\
  =========                 |
  \\      /  F ield         | OpenFOAM: The Open Source CFD Toolbox
   \\    /   O peration     | Website:  https://openfoam.org
    \\  /    A nd           | Version:  12
     \\/     M anipulation  |
\*---------------------------------------------------------------------------*/
FoamFile
{
    format      ascii;
    class       volScalarField;
    location    "380";
    object      p;
}
// * * * * * * * * * * * * * * * * * * * * * * * * * * * * * * * * * * * * * //

dimensions      [0 2 -2 0 0 0 0];

internalField   nonuniform List<scalar> 
6750
(
0.0216393
0.0216173
0.0215878
0.0214243
0.0203959
0.0231577
0.0231212
0.0229938
0.0227279
0.0223686
0.0249505
0.0248913
0.0247607
0.0245626
0.0244096
0.0268311
0.0267371
0.0266129
0.0264725
0.0263956
0.0286981
0.0285602
0.0284262
0.0283136
0.0282749
0.030472
0.0302856
0.0301308
0.0300281
0.0300067
0.0321041
0.031868
0.0316885
0.0315886
0.0315757
0.0335653
0.0332801
0.0330759
0.0329769
0.0329692
0.0348371
0.0345053
0.0342784
0.0341801
0.0341761
0.035909
0.0355347
0.0352883
0.0351913
0.0351899
0.0367778
0.0363663
0.0361042
0.0360092
0.0360097
0.0374466
0.0370043
0.036731
0.0366383
0.0366398
0.0379248
0.0374578
0.0371783
0.037088
0.0370898
0.0382266
0.0377406
0.0374613
0.0373722
0.0373733
0.0383649
0.0378732
0.0375992
0.0375077
0.0375067
0.0383649
0.0378732
0.0375993
0.0375077
0.0375067
0.0382266
0.0377406
0.0374613
0.0373722
0.0373733
0.0379248
0.0374578
0.0371783
0.037088
0.0370898
0.0374466
0.0370043
0.036731
0.0366383
0.0366398
0.0367778
0.0363664
0.0361043
0.0360093
0.0360097
0.0359091
0.0355348
0.0352883
0.0351914
0.03519
0.0348371
0.0345054
0.0342785
0.0341802
0.0341761
0.0335654
0.0332802
0.033076
0.032977
0.0329693
0.0321042
0.0318681
0.0316886
0.0315887
0.0315759
0.0304721
0.0302857
0.0301309
0.0300282
0.0300068
0.0286983
0.0285604
0.0284263
0.0283138
0.028275
0.0268312
0.0267373
0.026613
0.0264726
0.0263958
0.0249506
0.0248914
0.0247609
0.0245628
0.0244098
0.0231579
0.0231214
0.022994
0.0227281
0.0223688
0.0216395
0.0216175
0.021588
0.0214245
0.0203961
0.014217
0.0148097
0.0162779
0.0173629
0.0181493
0.0187743
0.019264
0.0196299
0.0198999
0.0200844
0.0201463
0.02016
0.0200975
0.0199547
0.0197304
0.0194209
0.0190233
0.0185405
0.0179757
0.0173289
0.0165947
0.0158777
0.0151228
0.0143451
0.0135647
0.0127944
0.0120438
0.0113276
0.0106559
0.00997319
0.0181267
0.0189224
0.0197221
0.0201229
0.0203518
0.0204931
0.0205489
0.0205285
0.0204605
0.0203424
0.0201326
0.0199455
0.0197402
0.0195193
0.0192817
0.0190181
0.0187161
0.0183647
0.0179532
0.0174787
0.0169592
0.0163259
0.0156613
0.0149566
0.0142198
0.0134622
0.012692
0.0119237
0.0111974
0.0104929
0.0206072
0.0207908
0.0211057
0.0212596
0.0213354
0.0213435
0.0212722
0.0211319
0.0209442
0.0206733
0.0203237
0.0199885
0.0196254
0.0192452
0.018854
0.0184516
0.0180348
0.0175983
0.0171365
0.0166445
0.0161214
0.0155664
0.0149861
0.0143798
0.0137524
0.0131097
0.0124529
0.0117927
0.0112161
0.0107991
0.0220501
0.0218259
0.0219548
0.0220376
0.0220466
0.0219793
0.0218304
0.0216169
0.0213476
0.0209534
0.0205072
0.0200478
0.0195462
0.0190192
0.0184786
0.0179321
0.0173851
0.0168407
0.0162997
0.0157608
0.0152222
0.0146878
0.0141543
0.0136187
0.0130807
0.0125408
0.0119918
0.0114362
0.0110032
0.0109211
0.0231406
0.0227685
0.0228151
0.0228272
0.0227528
0.022598
0.0223631
0.0220637
0.0216973
0.0211875
0.0206452
0.0200656
0.0194386
0.0187841
0.0181176
0.0174523
0.0167992
0.0161667
0.0155599
0.0149804
0.0144277
0.013901
0.013397
0.0129107
0.0124384
0.0119765
0.0115111
0.0110355
0.010711
0.0109331
0.0240877
0.0236766
0.0236583
0.0235902
0.02343
0.0231887
0.0228674
0.0224784
0.0220047
0.0213897
0.0207473
0.020052
0.0193081
0.0185377
0.0177591
0.0169896
0.0162443
0.015535
0.0148696
0.0142518
0.0136815
0.0131561
0.0126712
0.0122204
0.0117977
0.0113967
0.0109986
0.0105891
0.0103549
0.0108497
0.0249256
0.0245206
0.0244442
0.0242994
0.0240603
0.0237382
0.0233352
0.0228597
0.0222734
0.0215646
0.0208221
0.0200169
0.0191632
0.0182845
0.0174021
0.0165365
0.0157059
0.0149249
0.0142032
0.013546
0.0129537
0.0124232
0.0119489
0.011523
0.011138
0.0107854
0.0104421
0.0100887
0.00993463
0.0106712
0.0256748
0.0253058
0.025179
0.0249626
0.0246493
0.0242494
0.0237685
0.0232084
0.0225091
0.0217165
0.0208741
0.0199638
0.019006
0.0180255
0.0170459
0.0160903
0.0151796
0.0143303
0.0135539
0.0128565
0.012239
0.011698
0.0112269
0.0108172
0.01046
0.0101451
0.00984579
0.00953938
0.0094563
0.0104008
0.0263573
0.0260459
0.0258748
0.0255896
0.0252043
0.0247294
0.024173
0.023524
0.0227204
0.0218467
0.0209052
0.0198941
0.0188371
0.01776
0.0166884
0.0156479
0.0146612
0.0137466
0.0129168
0.0121787
0.0115335
0.0109777
0.0105041
0.0101033
0.00976555
0.00947927
0.00921439
0.00894671
0.0089266
0.0100447
0.0269899
0.0267507
0.02654
0.0261873
0.0257318
0.0251855
0.024553
0.023807
0.0229137
0.0219555
0.0209176
0.0198095
0.0186571
0.0174873
0.0163279
0.0152061
0.0141465
0.0131686
0.0122862
0.0115068
0.0108318
0.0102576
0.00977654
0.00937864
0.00905345
0.0087881
0.00854956
0.00831354
0.00834966
0.00960896
0.0275852
0.0274282
0.0271815
0.0267618
0.0262365
0.0256206
0.0249116
0.0240648
0.023092
0.0220463
0.0209137
0.0197115
0.0184663
0.0172067
0.0159621
0.0147616
0.013631
0.012591
0.0116562
0.0108346
0.0101278
0.00953201
0.00903937
0.0086393
0.00832083
0.00806988
0.00785079
0.00764047
0.00772713
0.0090986
0.0281533
0.0280855
0.0278057
0.0273186
0.0267234
0.0260401
0.0252513
0.0243051
0.0232573
0.0221219
0.020896
0.0196011
0.0182649
0.0169172
0.0155892
0.0143113
0.0131105
0.0120087
0.0110211
0.010156
0.00941531
0.00879508
0.00828711
0.00788046
0.00756366
0.00732151
0.00711593
0.00692621
0.00705857
0.00851732
0.0287039
0.0287302
0.0284199
0.0278658
0.027202
0.0264471
0.0255708
0.0245375
0.0234112
0.0221849
0.0208662
0.0194793
0.0180527
0.0166176
0.0152067
0.0138518
0.0125809
0.0114168
0.0103752
0.00946504
0.00868809
0.00804046
0.00751363
0.00709636
0.00677675
0.00653844
0.00634121
0.00616765
0.00634153
0.00786695
0.0292467
0.0293686
0.0290307
0.0284093
0.0276765
0.0268482
0.0258779
0.0247663
0.0235558
0.0222375
0.0208259
0.0193468
0.0178294
0.0163066
0.0148124
0.0133797
0.0120377
0.0108098
0.00971265
0.00875513
0.00793931
0.00726118
0.00671202
0.00628029
0.0059537
0.00571471
0.00552115
0.00535981
0.00557153
0.00714718
0.0297891
0.0300103
0.0296463
0.0289569
0.0281547
0.0272479
0.0261817
0.0249942
0.0236947
0.0222826
0.0207769
0.019204
0.0175945
0.0159824
0.0144032
0.0128911
0.011476
0.0101823
0.00902695
0.0080193
0.00716151
0.00644952
0.00587439
0.00542436
0.00508676
0.0048428
0.00464855
0.00449578
0.00474205
0.00635533
0.0303383
0.0306666
0.0302792
0.0295214
0.0286424
0.0276464
0.0264937
0.0252243
0.0238314
0.0223229
0.0207205
0.0190511
0.0173468
0.0156428
0.0139761
0.0123816
0.0108906
0.00952786
0.00831103
0.00724977
0.00634637
0.00559671
0.00499171
0.00451936
0.00416664
0.00391346
0.00371428
0.00356655
0.00384437
0.00548602
0.0309046
0.0313499
0.0309405
0.030111
0.029149
0.0280541
0.0268203
0.0254604
0.0239693
0.0223609
0.0206577
0.018888
0.0170849
0.0152853
0.013527
0.0118462
0.0102751
0.00883931
0.00755682
0.0064377
0.00548437
0.0046927
0.00405345
0.00355444
0.00318225
0.00291544
0.00270699
0.00256071
0.00286724
0.00453082
0.0315046
0.0320737
0.031644
0.0307334
0.0296784
0.0284863
0.0271665
0.0257075
0.0241127
0.0223989
0.0205896
0.0187141
0.0168069
0.0149062
0.013051
0.0112788
0.0096224
0.00810824
0.00675489
0.00557274
0.00456436
0.00372563
0.00304717
0.00251664
0.00212023
0.00183504
0.00161271
0.00146405
0.00179648
0.00347782
0.0321621
0.032848
0.0324005
0.031403
0.0302404
0.0289546
0.027537
0.0259711
0.0242656
0.0224394
0.0205167
0.0185282
0.0165099
0.0145011
0.0125422
0.0106718
0.00892346
0.00732447
0.00589392
0.00464252
0.00357304
0.00268133
0.00195792
0.00139034
0.000964321
0.000655461
0.000414169
0.000258857
0.000614236
0.00231083
0.0328959
0.0336922
0.0332277
0.0321324
0.0308529
0.0294678
0.0279406
0.0262582
0.0244329
0.0224847
0.0204392
0.0183284
0.0161897
0.0140639
0.0119927
0.0100156
0.00816718
0.00647544
0.00495999
0.00363191
0.00249411
0.00154246
0.000767408
0.000156332
-0.000305492
-0.000644074
-0.000910137
-0.00107704
-0.000702011
0.00100843
0.0337318
0.0346396
0.0341467
0.0329337
0.0315386
0.0300393
0.0283886
0.0265773
0.0246197
0.022537
0.0203563
0.0181111
0.0158405
0.0135865
0.0113921
0.00929781
0.00733933
0.00554519
0.00393557
0.00252187
0.00130717
0.000287341
-0.000547265
-0.00120941
-0.00171431
-0.0020897
-0.00238733
-0.00257171
-0.002181
-0.000457626
0.0347106
0.0357118
0.0351779
0.0338418
0.0323193
0.0306852
0.0288939
0.0269374
0.0248311
0.0225977
0.020266
0.0178712
0.0154538
0.0130575
0.0107264
0.00850209
0.00642122
0.00451295
0.00279795
0.00128792
-1.3943e-05
-0.00111178
-0.00201536
-0.00273758
-0.00329424
-0.00371486
-0.00405216
-0.00426122
-0.00385993
-0.00212481
0.0358789
0.0369537
0.0363617
0.0348941
0.0332187
0.031426
0.0294724
0.0273491
0.0250725
0.0226674
0.0201643
0.0176002
0.0150173
0.0124608
0.00997613
0.00760595
0.00538761
0.00335094
0.00151698
-0.000102334
-0.00150372
-0.00269139
-0.00367526
-0.00446839
-0.00508726
-0.00556327
-0.00595009
-0.00619282
-0.00578783
-0.00404342
0.0373046
0.0384258
0.0377586
0.0361315
0.0342702
0.0322887
0.0301435
0.0278244
0.0253491
0.0227445
0.0200434
0.0172847
0.0145124
0.0117732
0.00911381
0.00657793
0.00420354
0.00202091
5.13912e-05
-0.00169298
-0.00320894
-0.00450083
-0.00557875
-0.00645601
-0.00714982
-0.00769364
-0.00814203
-0.00842981
-0.00803086
-0.00628244
0.0391005
0.0402221
0.0394405
0.037609
0.0355199
0.0333091
0.0309321
0.0283776
0.025665
0.022824
0.0198896
0.0169032
0.0139104
0.0109597
0.00809893
0.00537248
0.00281882
0.000468478
-0.00165717
-0.00354611
-0.00519522
-0.00660908
-0.00779804
-0.00877574
-0.00956025
-0.0101872
-0.0107121
-0.0110596
-0.010681
-0.00893938
0.0413937
0.042466
0.0415071
0.0394099
0.0370343
0.0345363
0.0318707
0.0290255
0.0260226
0.0228945
0.0196793
0.0164207
0.0131666
0.00996684
0.00687008
0.00392124
0.00115883
-0.00138681
-0.00369456
-0.00575271
-0.00755843
-0.00911662
-0.0104379
-0.0115364
-0.0124311
-0.0131599
-0.0137794
-0.014205
-0.0138683
-0.0121548
0.0444402
0.0453517
0.0441144
0.0416616
0.0389128
0.036042
0.0330041
0.029788
0.0264183
0.0229316
0.0193694
0.0157781
0.0122076
0.00870881
0.00533082
0.00211815
-0.000891425
-0.00366843
-0.00619258
-0.0084528
-0.0104467
-0.0121795
-0.0136622
-0.014909
-0.0159399
-0.0167946
-0.0175308
-0.018058
-0.0177963
-0.0161517
0.0486224
0.0491614
0.0474703
0.0445247
0.0412767
0.0379094
0.0343794
0.0306777
0.0268336
0.0228884
0.018888
0.0148816
0.0109212
0.00705796
0.00334027
-0.000188985
-0.00349413
-0.00654785
-0.00933161
-0.0118356
-0.0140586
-0.0160064
-0.0176896
-0.0191228
-0.0203267
-0.0213417
-0.0222251
-0.0228869
-0.0227589
-0.0212686
0.0548126
0.0546045
0.0521683
0.0485221
0.0445684
0.0404799
0.0362251
0.0318093
0.0272734
0.0226683
0.0180469
0.0134632
0.00897033
0.00461853
0.000452989
-0.00348764
-0.00717225
-0.0105777
-0.013688
-0.0164939
-0.0189974
-0.0212172
-0.0231492
-0.0248079
-0.0262144
-0.027407
-0.0284385
-0.0292346
-0.0293033
-0.0281339
0.06562
0.0637252
0.0597344
0.0548576
0.04974
0.0444779
0.039068
0.0335456
0.0279687
0.0223975
0.0168896
0.011498
0.00627053
0.00124852
-0.00353365
-0.00804862
-0.0122756
-0.0161998
-0.0198131
-0.023113
-0.0260958
-0.0287492
-0.0310989
-0.0331534
-0.0349237
-0.0364353
-0.0377336
-0.0388078
-0.0393622
-0.0388424
0.0178834
0.0188209
0.0205684
0.0219498
0.0231033
0.0241752
0.0251995
0.026185
0.0271418
0.0280792
0.0290054
0.0299284
0.0308561
0.0317972
0.0327601
0.0337551
0.0347952
0.0358964
0.0370779
0.0383609
0.039773
0.0413539
0.0431509
0.0452301
0.0476802
0.0506365
0.0542843
0.0588365
0.0645204
0.0718575
0.0222033
0.0231784
0.0243026
0.0252377
0.0260706
0.0268632
0.0276271
0.0283666
0.0290888
0.029802
0.030514
0.0312328
0.0319667
0.0327248
0.0335165
0.0343536
0.0352499
0.0362223
0.0372912
0.0384812
0.0398247
0.0413648
0.0431583
0.0452831
0.047849
0.0510187
0.0550267
0.0601948
0.0670106
0.0760623
0.0245104
0.0253787
0.0262206
0.0269709
0.0276982
0.028419
0.02913
0.0298324
0.0305308
0.0312313
0.0319397
0.0326629
0.0334081
0.0341834
0.0349984
0.0358646
0.0367959
0.0378096
0.0389271
0.0401753
0.0415895
0.0432166
0.0451196
0.0473858
0.0501392
0.053559
0.0579114
0.0635752
0.0712014
0.0814815
0.0265221
0.0272815
0.0280083
0.0286792
0.0293428
0.0300089
0.0306767
0.0313489
0.0320306
0.032727
0.033444
0.0341877
0.0349652
0.0357846
0.0366554
0.0375894
0.0386009
0.0397076
0.0409319
0.0423024
0.0438565
0.0456441
0.0477323
0.0502143
0.0532216
0.0569435
0.0616607
0.0677688
0.0760096
0.0871208
0.0283992
0.029066
0.0297035
0.0303035
0.0309073
0.0315249
0.0321569
0.0328062
0.0334768
0.0341736
0.0349018
0.0356671
0.0364767
0.0373385
0.0382626
0.0392609
0.0403484
0.0415437
0.0428703
0.0443586
0.0460481
0.0479913
0.050259
0.052949
0.0561985
0.0602043
0.0652572
0.0717636
0.0805491
0.0924091
0.0301131
0.0306981
0.0312598
0.0318004
0.0323572
0.0329389
0.0335461
0.034181
0.0348473
0.0355491
0.0362913
0.0370796
0.0379207
0.038823
0.0397963
0.0408531
0.0420089
0.043283
0.0447
0.0462916
0.0480992
0.0501776
0.0526007
0.0554699
0.0589274
0.0631765
0.0685177
0.0753705
0.0846419
0.0972097
0.031661
0.0321729
0.0326705
0.0331628
0.0336829
0.0342378
0.0348277
0.0354544
0.036121
0.0368314
0.03759
0.0384023
0.0392749
0.0402162
0.0412361
0.0423475
0.043566
0.0449117
0.0464099
0.0480936
0.0500055
0.0522023
0.0547602
0.0577838
0.0614191
0.0658753
0.0714615
0.0786106
0.0882963
0.101492
0.0330382
0.0334844
0.0339272
0.03438
0.0348713
0.0354061
0.0359842
0.0366069
0.037277
0.0379979
0.0387737
0.0396097
0.0405124
0.04149
0.0425529
0.0437138
0.0449888
0.0463985
0.0479689
0.0497338
0.0517371
0.054037
0.0567115
0.0598676
0.0636546
0.0682863
0.0740793
0.0814789
0.0915039
0.105232
0.0342362
0.0346237
0.0350198
0.0354409
0.0359098
0.0364297
0.0370001
0.0376218
0.0382971
0.039029
0.0398214
0.0406795
0.0416095
0.0426198
0.0437207
0.044925
0.0462494
0.0477146
0.0493472
0.0511818
0.0532631
0.0556505
0.0584235
0.061691
0.0656049
0.0703825
0.0763472
0.0839544
0.0942478
0.108414
0.0352482
0.0355839
0.0359415
0.0363375
0.0367894
0.0372986
0.0378641
0.0384865
0.0391676
0.0399101
0.0407177
0.0415953
0.0425491
0.0435875
0.0447207
0.045962
0.0473278
0.0488395
0.0505241
0.0524165
0.0545624
0.0570218
0.0598756
0.063234
0.0672512
0.0721472
0.0782507
0.0860257
0.096523
0.111044
0.0360712
0.036363
0.0366896
0.0370666
0.0375059
0.0380075
0.0385701
0.0391941
0.0398808
0.0406327
0.0414533
0.0423473
0.0433209
0.0443824
0.0455421
0.0468133
0.0482128
0.049762
0.0514883
0.053427
0.0556243
0.058141
0.0610588
0.0644891
0.0685875
0.0735763
0.0797884
0.0876949
0.0983399
0.113143
0.0367072
0.0369637
0.0372668
0.0376298
0.0380601
0.0385565
0.0391175
0.0397433
0.0404349
0.0411946
0.0420255
0.0429325
0.0439217
0.0450012
0.0461815
0.0474758
0.0489012
0.0504792
0.0522373
0.0542114
0.0564479
0.0590081
0.0619743
0.0654588
0.0696184
0.0746768
0.0809704
0.0889758
0.0997205
0.114744
0.0371635
0.0373937
0.0376801
0.0380335
0.0384578
0.0389508
0.0395111
0.0401385
0.0408339
0.0415993
0.042438
0.0433545
0.0443549
0.0454475
0.0466426
0.0479536
0.0493975
0.0509961
0.052777
0.0547763
0.0570406
0.0596317
0.0626322
0.0661551
0.0703578
0.0754652
0.0818159
0.0898911
0.100696
0.115886
0.0374518
0.0376648
0.0379408
0.0382884
0.038709
0.0392001
0.0397601
0.0403887
0.0410866
0.0418559
0.0426996
0.0436222
0.0446299
0.0457308
0.0469354
0.048257
0.0497128
0.0513244
0.0531198
0.0551351
0.057417
0.0600276
0.0630498
0.0665968
0.0708267
0.0759647
0.0823514
0.0904703
0.101303
0.116615
0.0375872
0.037792
0.038063
0.0384079
0.0388268
0.0393171
0.039877
0.0405063
0.0412055
0.0419767
0.0428228
0.0437484
0.0447596
0.0458646
0.0470737
0.0484004
0.0498618
0.0514798
0.0532821
0.055305
0.0575953
0.0602152
0.0632478
0.0668063
0.0710492
0.0762018
0.0826055
0.0907451
0.101584
0.116968
0.0375873
0.037792
0.038063
0.0384079
0.0388268
0.0393171
0.039877
0.0405063
0.0412055
0.0419767
0.0428228
0.0437484
0.0447596
0.0458646
0.0470737
0.0484004
0.0498619
0.0514798
0.0532821
0.055305
0.0575954
0.0602153
0.0632478
0.0668063
0.0710492
0.0762018
0.0826055
0.0907452
0.101584
0.116968
0.0374518
0.0376649
0.0379408
0.0382884
0.038709
0.0392001
0.0397601
0.0403887
0.0410866
0.0418559
0.0426996
0.0436222
0.0446299
0.0457308
0.0469354
0.0482571
0.0497128
0.0513244
0.0531199
0.0551351
0.057417
0.0600276
0.0630498
0.0665968
0.0708267
0.0759648
0.0823514
0.0904704
0.101303
0.116615
0.0371635
0.0373937
0.0376801
0.0380336
0.0384578
0.0389508
0.0395111
0.0401385
0.0408339
0.0415994
0.042438
0.0433545
0.044355
0.0454475
0.0466426
0.0479536
0.0493976
0.0509961
0.0527771
0.0547764
0.0570407
0.0596317
0.0626323
0.0661551
0.0703579
0.0754653
0.081816
0.0898912
0.100696
0.115887
0.0367072
0.0369637
0.0372668
0.0376298
0.0380601
0.0385565
0.0391176
0.0397433
0.040435
0.0411946
0.0420256
0.0429325
0.0439217
0.0450012
0.0461815
0.0474759
0.0489012
0.0504792
0.0522374
0.0542115
0.056448
0.0590082
0.0619744
0.0654589
0.0696185
0.074677
0.0809705
0.088976
0.0997207
0.114744
0.0360712
0.036363
0.0366897
0.0370666
0.0375059
0.0380075
0.0385702
0.0391941
0.0398809
0.0406328
0.0414534
0.0423473
0.043321
0.0443825
0.0455422
0.0468134
0.0482129
0.0497621
0.0514884
0.0534271
0.0556244
0.0581411
0.0610589
0.0644892
0.0685876
0.0735764
0.0797886
0.0876951
0.0983401
0.113143
0.0352483
0.035584
0.0359415
0.0363376
0.0367895
0.0372987
0.0378641
0.0384865
0.0391677
0.0399102
0.0407178
0.0415953
0.0425492
0.0435876
0.0447208
0.045962
0.0473279
0.0488396
0.0505242
0.0524166
0.0545625
0.0570219
0.0598757
0.0632342
0.0672514
0.0721474
0.0782509
0.0860259
0.0965233
0.111044
0.0342363
0.0346237
0.0350199
0.035441
0.0359099
0.0364298
0.0370001
0.0376218
0.0382971
0.0390291
0.0398215
0.0406795
0.0416096
0.0426199
0.0437207
0.0449251
0.0462495
0.0477147
0.0493474
0.0511819
0.0532633
0.0556506
0.0584237
0.0616912
0.0656051
0.0703828
0.0763475
0.0839547
0.0942481
0.108414
0.0330382
0.0334845
0.0339272
0.0343801
0.0348714
0.0354062
0.0359842
0.036607
0.0372771
0.037998
0.0387738
0.0396097
0.0405125
0.0414901
0.042553
0.0437139
0.0449889
0.0463986
0.0479691
0.049734
0.0517373
0.0540372
0.0567117
0.0598678
0.0636549
0.0682865
0.0740796
0.0814792
0.0915043
0.105232
0.0316611
0.032173
0.0326706
0.0331629
0.033683
0.0342379
0.0348278
0.0354545
0.0361211
0.0368315
0.0375901
0.0384024
0.039275
0.0402163
0.0412363
0.0423476
0.0435661
0.0449118
0.0464101
0.0480937
0.0500056
0.0522024
0.0547604
0.057784
0.0614194
0.0658756
0.0714618
0.078611
0.0882968
0.101493
0.0301132
0.0306982
0.0312599
0.0318005
0.0323573
0.032939
0.0335462
0.0341811
0.0348474
0.0355492
0.0362914
0.0370797
0.0379208
0.0388231
0.0397964
0.0408533
0.0420091
0.0432832
0.0447002
0.0462918
0.0480994
0.0501778
0.0526009
0.0554701
0.0589276
0.0631769
0.0685181
0.0753709
0.0846424
0.0972103
0.0283993
0.0290662
0.0297036
0.0303036
0.0309074
0.031525
0.032157
0.0328063
0.0334769
0.0341737
0.0349019
0.0356672
0.0364768
0.0373387
0.0382627
0.039261
0.0403485
0.0415438
0.0428705
0.0443588
0.0460483
0.0479915
0.0502593
0.0529493
0.0561988
0.0602046
0.0652576
0.071764
0.0805497
0.0924098
0.0265222
0.0272817
0.0280085
0.0286793
0.0293429
0.030009
0.0306768
0.0313491
0.0320307
0.0327271
0.0334441
0.0341878
0.0349653
0.0357847
0.0366556
0.0375896
0.038601
0.0397078
0.0409321
0.0423026
0.0438567
0.0456443
0.0477325
0.0502146
0.0532219
0.0569439
0.0616612
0.0677693
0.0760101
0.0871216
0.0245106
0.0253789
0.0262207
0.0269711
0.0276984
0.0284191
0.0291302
0.0298325
0.030531
0.0312314
0.0319399
0.032663
0.0334082
0.0341836
0.0349986
0.0358647
0.036796
0.0378098
0.0389273
0.0401755
0.0415897
0.0432169
0.0451199
0.0473862
0.0501395
0.0535594
0.0579119
0.0635758
0.071202
0.0814823
0.0222035
0.0231786
0.0243028
0.0252379
0.0260707
0.0268633
0.0276272
0.0283667
0.029089
0.0298021
0.0305141
0.0312329
0.0319669
0.0327249
0.0335167
0.0343537
0.03525
0.0362225
0.0372914
0.0384814
0.0398249
0.0413651
0.0431585
0.0452834
0.0478494
0.0510191
0.0550271
0.0601953
0.0670112
0.0760631
0.0178837
0.0188212
0.0205686
0.02195
0.0231035
0.0241754
0.0251997
0.0261852
0.0271419
0.0280793
0.0290056
0.0299285
0.0308563
0.0317974
0.0327603
0.0337553
0.0347953
0.0358966
0.0370781
0.038361
0.0397732
0.0413541
0.0431512
0.0452303
0.0476805
0.0506369
0.0542848
0.058837
0.0645211
0.0718583
0.0656209
0.0637261
0.0597353
0.0548585
0.0497409
0.0444789
0.039069
0.0335466
0.0279696
0.0223985
0.0168905
0.0114989
0.0062714
0.00124936
-0.00353285
-0.00804785
-0.0122748
-0.0161991
-0.0198124
-0.0231124
-0.0260952
-0.0287487
-0.0310985
-0.033153
-0.0349233
-0.036435
-0.0377333
-0.0388075
-0.0393619
-0.0388421
0.0548133
0.0546052
0.0521691
0.0485228
0.0445692
0.0404806
0.0362259
0.0318101
0.0272742
0.0226691
0.0180477
0.0134639
0.00897107
0.00461925
0.000453683
-0.00348697
-0.00717162
-0.0105771
-0.0136874
-0.0164934
-0.0189969
-0.0212168
-0.0231488
-0.0248075
-0.0262141
-0.0274066
-0.0284381
-0.0292343
-0.029303
-0.0281336
0.048623
0.049162
0.0474708
0.0445254
0.0412773
0.0379101
0.03438
0.0306783
0.0268343
0.0228891
0.0188886
0.0148823
0.0109218
0.00705859
0.00334088
-0.000188405
-0.00349357
-0.00654732
-0.00933111
-0.0118351
-0.0140582
-0.016006
-0.0176892
-0.0191225
-0.0203264
-0.0213414
-0.0222248
-0.0228867
-0.0227587
-0.0212683
0.0444407
0.0453522
0.0441149
0.0416621
0.0389133
0.0360425
0.0330047
0.0297886
0.0264189
0.0229322
0.01937
0.0157786
0.0122081
0.00870936
0.00533135
0.00211866
-0.000890935
-0.00366797
-0.00619213
-0.00845238
-0.0104464
-0.0121792
-0.0136618
-0.0149087
-0.0159396
-0.0167944
-0.0175305
-0.0180578
-0.0177961
-0.0161515
0.0413941
0.0424665
0.0415075
0.0394104
0.0370348
0.0345368
0.0318712
0.029026
0.0260231
0.022895
0.0196798
0.0164212
0.0131671
0.00996733
0.00687056
0.0039217
0.00115927
-0.0013864
-0.00369417
-0.00575233
-0.00755808
-0.00911629
-0.0104376
-0.0115361
-0.0124309
-0.0131597
-0.0137792
-0.0142048
-0.0138681
-0.0121546
0.0391009
0.0402224
0.0394409
0.0376094
0.0355203
0.0333095
0.0309325
0.028378
0.0256655
0.0228244
0.0198901
0.0169036
0.0139109
0.0109602
0.00809936
0.00537289
0.00281921
0.00046885
-0.00165681
-0.00354577
-0.0051949
-0.00660879
-0.00779776
-0.00877548
-0.00956001
-0.010187
-0.0107119
-0.0110594
-0.0106808
-0.00893922
0.037305
0.0384262
0.037759
0.0361319
0.0342706
0.0322891
0.0301439
0.0278248
0.0253495
0.0227449
0.0200438
0.0172851
0.0145128
0.0117736
0.0091142
0.0065783
0.00420389
0.00202125
5.17061e-05
-0.00169269
-0.00320866
-0.00450057
-0.0055785
-0.00645577
-0.00714959
-0.00769343
-0.00814185
-0.00842966
-0.00803072
-0.0062823
0.0358792
0.036954
0.036362
0.0348944
0.033219
0.0314263
0.0294727
0.0273495
0.0250729
0.0226678
0.0201647
0.0176006
0.0150177
0.0124612
0.00997648
0.00760629
0.00538793
0.00335124
0.00151726
-0.000102069
-0.00150347
-0.00269116
-0.00367504
-0.00446818
-0.00508705
-0.00556308
-0.00594991
-0.00619266
-0.0057877
-0.00404329
0.0347109
0.035712
0.0351782
0.0338421
0.0323196
0.0306855
0.0288943
0.0269378
0.0248314
0.0225981
0.0202664
0.0178716
0.0154542
0.0130578
0.0107267
0.0085024
0.00642151
0.00451323
0.00279821
0.00128816
-1.37233e-05
-0.00111158
-0.00201517
-0.0027374
-0.00329406
-0.00371468
-0.00405199
-0.00426107
-0.0038598
-0.00212468
0.0337321
0.0346398
0.034147
0.0329339
0.0315389
0.0300396
0.0283889
0.0265776
0.02462
0.0225373
0.0203566
0.0181114
0.0158408
0.0135868
0.0113924
0.00929809
0.0073396
0.00554544
0.00393581
0.00252209
0.00130737
0.000287522
-0.000547101
-0.00120925
-0.00171417
-0.00208956
-0.00238718
-0.00257157
-0.00218087
-0.000457497
0.0328961
0.0336924
0.0332279
0.0321326
0.0308531
0.0294681
0.0279409
0.0262585
0.0244332
0.022485
0.0204395
0.0183286
0.0161899
0.0140642
0.011993
0.0100158
0.00816742
0.00647567
0.00496021
0.00363211
0.00249429
0.00154262
0.000767556
0.000156463
-0.000305372
-0.000643958
-0.000910019
-0.00107692
-0.000701889
0.00100856
0.0321623
0.0328482
0.0324007
0.0314032
0.0302406
0.0289548
0.0275372
0.0259713
0.0242659
0.0224396
0.020517
0.0185285
0.0165101
0.0145013
0.0125425
0.010672
0.00892368
0.00732468
0.00589412
0.00464271
0.00357321
0.00268148
0.00195806
0.00139046
0.000964425
0.000655555
0.000414262
0.000258954
0.00061434
0.00231094
0.0315048
0.0320739
0.0316442
0.0307336
0.0296786
0.0284865
0.0271667
0.0257078
0.0241129
0.0223991
0.0205899
0.0187144
0.0168072
0.0149064
0.0130513
0.011279
0.00962261
0.00810843
0.00675507
0.00557291
0.00456452
0.00372577
0.0030473
0.00251676
0.00212033
0.00183512
0.00161278
0.00146412
0.00179656
0.00347791
0.0309047
0.0313501
0.0309407
0.0301112
0.0291492
0.0280543
0.0268205
0.0254606
0.0239695
0.0223611
0.020658
0.0188882
0.0170851
0.0152855
0.0135272
0.0118464
0.0102753
0.00883949
0.00755699
0.00643786
0.00548452
0.00469283
0.00405358
0.00355455
0.00318235
0.00291552
0.00270706
0.00256077
0.0028673
0.00453089
0.0303385
0.0306668
0.0302794
0.0295216
0.0286426
0.0276466
0.0264939
0.0252245
0.0238316
0.0223231
0.0207207
0.0190513
0.017347
0.015643
0.0139763
0.0123818
0.0108907
0.00952802
0.00831119
0.00724992
0.00634651
0.00559684
0.00499183
0.00451948
0.00416674
0.00391355
0.00371435
0.00356661
0.00384442
0.00548607
0.0297892
0.0300104
0.0296465
0.0289571
0.0281548
0.027248
0.0261819
0.0249944
0.0236949
0.0222828
0.0207771
0.0192042
0.0175946
0.0159826
0.0144034
0.0128912
0.0114762
0.0101825
0.00902709
0.00801943
0.00716163
0.00644963
0.0058745
0.00542446
0.00508686
0.00484289
0.00464863
0.00449585
0.00474211
0.00635538
0.0292468
0.0293687
0.0290309
0.0284095
0.0276767
0.0268484
0.0258781
0.0247664
0.023556
0.0222376
0.0208261
0.019347
0.0178296
0.0163068
0.0148125
0.0133798
0.0120378
0.01081
0.00971278
0.00875525
0.00793942
0.00726129
0.00671212
0.00628038
0.00595379
0.0057148
0.00552123
0.00535988
0.00557159
0.00714723
0.028704
0.0287303
0.02842
0.0278659
0.0272021
0.0264472
0.025571
0.0245377
0.0234113
0.022185
0.0208663
0.0194795
0.0180529
0.0166178
0.0152069
0.0138519
0.012581
0.0114169
0.0103753
0.00946515
0.0086882
0.00804055
0.00751372
0.00709645
0.00677684
0.00653853
0.00634129
0.00616772
0.00634159
0.00786699
0.0281534
0.0280857
0.0278058
0.0273188
0.0267236
0.0260403
0.0252515
0.0243052
0.0232574
0.0221221
0.0208961
0.0196012
0.018265
0.0169173
0.0155893
0.0143114
0.0131106
0.0120088
0.0110212
0.0101561
0.0094154
0.00879517
0.00828719
0.00788053
0.00756373
0.00732158
0.00711601
0.00692628
0.00705864
0.00851737
0.0275853
0.0274283
0.0271816
0.0267619
0.0262366
0.0256207
0.0249118
0.0240649
0.0230921
0.0220464
0.0209139
0.0197116
0.0184665
0.0172068
0.0159623
0.0147617
0.0136311
0.0125911
0.0116563
0.0108347
0.0101278
0.00953209
0.00903944
0.00863937
0.0083209
0.00806995
0.00785086
0.00764054
0.0077272
0.00909866
0.0269901
0.0267508
0.0265401
0.0261875
0.025732
0.0251856
0.0245531
0.0238071
0.0229139
0.0219556
0.0209177
0.0198096
0.0186572
0.0174874
0.016328
0.0152062
0.0141466
0.0131687
0.0122863
0.0115069
0.0108319
0.0102577
0.00977661
0.0093787
0.00905351
0.00878816
0.00854962
0.00831361
0.00834973
0.00960901
0.0263574
0.026046
0.025875
0.0255897
0.0252044
0.0247295
0.0241731
0.0235241
0.0227206
0.0218468
0.0209053
0.0198942
0.0188373
0.0177601
0.0166885
0.015648
0.0146613
0.0137467
0.0129169
0.0121788
0.0115336
0.0109778
0.0105042
0.0101033
0.0097656
0.00947933
0.00921445
0.00894677
0.00892667
0.0100448
0.0256749
0.025306
0.0251792
0.0249627
0.0246494
0.0242495
0.0237686
0.0232086
0.0225092
0.0217166
0.0208742
0.0199639
0.0190061
0.0180256
0.0170459
0.0160904
0.0151797
0.0143304
0.013554
0.0128566
0.0122391
0.011698
0.011227
0.0108173
0.0104601
0.0101452
0.00984584
0.00953944
0.00945637
0.0104009
0.0249257
0.0245207
0.0244443
0.0242995
0.0240604
0.0237383
0.0233353
0.0228598
0.0222735
0.0215647
0.0208222
0.020017
0.0191633
0.0182846
0.0174022
0.0165366
0.015706
0.0149249
0.0142033
0.0135461
0.0129538
0.0124233
0.0119489
0.0115231
0.011138
0.0107854
0.0104421
0.0100888
0.0099347
0.0106712
0.0240879
0.0236767
0.0236585
0.0235904
0.0234301
0.0231888
0.0228676
0.0224785
0.0220048
0.0213898
0.0207474
0.0200521
0.0193082
0.0185377
0.0177591
0.0169896
0.0162443
0.0155351
0.0148697
0.0142518
0.0136816
0.0131562
0.0126713
0.0122205
0.0117978
0.0113968
0.0109986
0.0105891
0.010355
0.0108498
0.0231408
0.0227687
0.0228152
0.0228273
0.022753
0.0225982
0.0223632
0.0220638
0.0216974
0.0211876
0.0206453
0.0200656
0.0194386
0.0187842
0.0181177
0.0174523
0.0167993
0.0161668
0.0155599
0.0149805
0.0144278
0.0139011
0.013397
0.0129107
0.0124385
0.0119765
0.0115111
0.0110356
0.0107111
0.0109332
0.0220503
0.0218261
0.0219549
0.0220377
0.0220468
0.0219794
0.0218305
0.021617
0.0213477
0.0209534
0.0205072
0.0200478
0.0195463
0.0190193
0.0184786
0.0179321
0.0173852
0.0168408
0.0162998
0.0157608
0.0152222
0.0146878
0.0141544
0.0136187
0.0130808
0.0125409
0.0119918
0.0114363
0.0110033
0.0109211
0.0206074
0.020791
0.0211059
0.0212598
0.0213355
0.0213436
0.0212723
0.021132
0.0209443
0.0206734
0.0203238
0.0199886
0.0196254
0.0192452
0.018854
0.0184517
0.0180348
0.0175983
0.0171365
0.0166445
0.0161214
0.0155664
0.0149861
0.0143799
0.0137524
0.0131098
0.012453
0.0117928
0.0112162
0.0107992
0.018127
0.0189226
0.0197223
0.0201231
0.0203519
0.0204932
0.0205491
0.0205286
0.0204606
0.0203424
0.0201327
0.0199456
0.0197402
0.0195194
0.0192817
0.0190181
0.0187161
0.0183647
0.0179533
0.0174787
0.0169593
0.0163259
0.0156613
0.0149567
0.0142198
0.0134623
0.0126921
0.0119237
0.0111975
0.010493
0.0142173
0.01481
0.0162782
0.0173631
0.0181495
0.0187744
0.0192642
0.01963
0.0199
0.0200844
0.0201464
0.0201601
0.0200975
0.0199547
0.0197304
0.0194209
0.0190232
0.0185405
0.0179757
0.0173289
0.0165947
0.0158777
0.0151228
0.0143451
0.0135648
0.0127945
0.0120439
0.0113277
0.010656
0.00997331
-0.0405203
-0.032577
-0.026579
-0.0217083
-0.0176879
-0.014341
-0.0115175
-0.00910815
-0.00702974
-0.00521906
-0.00362744
-0.00221691
-0.000957454
0.000174965
0.00119985
0.00213315
0.00298802
0.00377525
0.0045036
0.00517993
0.00580918
0.00639435
0.00693633
0.00743383
0.00788297
0.00827543
0.00860128
0.00885825
0.00904799
0.0090941
-0.0406715
-0.032601