/*--------------------------------*- C++ -*----------------------------------*\
  =========                 |
  \\      /  F ield         | OpenFOAM: The Open Source CFD Toolbox
   \\    /   O peration     | Website:  https://openfoam.org
    \\  /    A nd           | Version:  12
     \\/     M anipulation  |
\*---------------------------------------------------------------------------*/
FoamFile
{
    format      ascii;
    class       surfaceScalarField;
    location    "380";
    object      phi;
}
// * * * * * * * * * * * * * * * * * * * * * * * * * * * * * * * * * * * * * //

dimensions      [0 3 -1 0 0 0 0];

internalField   nonuniform List<scalar> 
13275
(
0.369023
-0.0046258
0.369481
-0.0114852
0.369794
-0.0154059
0.369909
-0.0173603
-0.0180303
0.369849
0.351098
-0.00489889
0.35146
-0.0118473
0.351681
-0.0156268
0.351643
-0.0173214
-0.0176326
0.351245
0.334002
-0.00502178
0.334077
-0.011923
0.333968
-0.0155176
0.333634
-0.0169873
-0.0170941
0.333096
0.317721
-0.00499235
0.317511
-0.0117122
0.317103
-0.0151099
0.316533
-0.0164172
-0.0164198
0.315858
0.302245
-0.00483557
0.30179
-0.0112572
0.301125
-0.0144448
0.300336
-0.0156285
-0.015583
0.299499
0.287534
-0.00457537
0.286872
-0.0105953
0.285978
-0.0135507
0.284977
-0.0146275
-0.014564
0.283958
0.273546
-0.00422908
0.272706
-0.00975543
0.271606
-0.0124507
0.270403
-0.0134239
-0.0133582
0.269197
0.260244
-0.00381041
0.259251
-0.00876329
0.25797
-0.0111695
0.256582
-0.0120354
-0.0119756
0.255199
0.247593
-0.00333247
0.246476
-0.00764591
0.245043
-0.00973682
0.243497
-0.0104893
-0.0104389
0.24196
0.235564
-0.00280901
0.234351
-0.00643292
0.232802
-0.00818775
0.231133
-0.00882019
-0.00878025
0.229475
0.224129
-0.00225442
0.222852
-0.00515569
0.221225
-0.00656052
0.219472
-0.00706787
-0.00703794
0.21773
0.213259
-0.00168313
0.211949
-0.00384563
0.210283
-0.00489401
0.208488
-0.00527325
-0.00525223
0.206702
0.202927
-0.00110903
0.201614
-0.00253226
0.199945
-0.00322499
0.198147
-0.00347532
-0.00346195
0.196357
0.193107
-0.000544676
0.191817
-0.00124203
0.190177
-0.00158571
0.18841
-0.00170835
-0.00170166
0.18665
0.183771
-5.18407e-08
0.18253
-1.32396e-07
0.180944
-1.80275e-07
0.179236
-2.02081e-07
-2.06601e-07
0.177534
0.183771
0.000544572
0.18253
0.00124177
0.180944
0.00158535
0.179236
0.00170795
0.00170125
0.177534
0.193107
0.00110892
0.191817
0.002532
0.190177
0.00322463
0.18841
0.00347491
0.00346153
0.18665
0.202927
0.00168303
0.201614
0.00384537
0.199945
0.00489366
0.198147
0.00527285
0.00525182
0.196357
0.213259
0.00225432
0.211949
0.00515542
0.210283
0.00656017
0.208488
0.00706747
0.00703753
0.206702
0.224129
0.00280891
0.222852
0.00643265
0.221225
0.00818739
0.219472
0.00881979
0.00877985
0.21773
0.235564
0.00333237
0.234351
0.00764565
0.232802
0.00973647
0.231133
0.0104889
0.0104385
0.229475
0.247593
0.00381031
0.246476
0.00876303
0.245043
0.0111691
0.243497
0.012035
0.0119752
0.24196
0.260244
0.00422898
0.259251
0.00975517
0.25797
0.0124503
0.256582
0.0134235
0.0133578
0.255199
0.273546
0.00457528
0.272706
0.0105951
0.271606
0.0135503
0.270403
0.0146271
0.0145636
0.269197
0.287534
0.00483547
0.286872
0.0112569
0.285978
0.0144444
0.284977
0.0156281
0.0155826
0.283958
0.302245
0.00499226
0.30179
0.011712
0.301125
0.0151095
0.300336
0.0164168
0.0164194
0.299499
0.317721
0.00502168
0.317511
0.0119227
0.317103
0.0155173
0.316533
0.0169869
0.0170937
0.315858
0.334002
0.00489879
0.334077
0.011847
0.333968
0.0156264
0.333634
0.017321
0.0176322
0.333096
0.351098
0.00462571
0.35146
0.011485
0.351681
0.0154056
0.351643
0.0173599
0.0180298
0.351245
0.369023
0.369481
0.369794
0.369909
0.369849
0.197357
-0.0505303
-0.197397
0.196943
-0.0577706
0.195919
-0.0640417
0.194264
-0.0695588
0.192034
-0.0742867
0.189302
-0.0781599
0.186137
-0.0810874
0.182617
-0.0829462
0.178829
-0.0835922
0.174887
-0.082976
0.170876
-0.0809015
0.166951
-0.0772309
0.163258
-0.0720478
0.15994
-0.0654427
0.157128
-0.0575938
0.154927
-0.048757
0.153408
-0.0392439
0.152606
-0.0293925
0.152514
-0.0195386
0.153091
-0.00999029
0.154249
-0.000976011
0.15595
0.00729096
0.158083
0.0147229
0.160556
0.0212269
0.163282
0.0267838
0.16618
0.031413
0.169182
0.0351604
0.172224
0.0380875
0.175248
0.0402646
0.0417572
0.178164
0.194725
-0.0506492
-0.194606
0.194061
-0.0571065
0.192707
-0.0626877
0.190763
-0.0676145
0.188306
-0.0718298
0.185409
-0.0752626
0.182138
-0.0778167
0.178563
-0.0793717
0.17477
-0.0797991
0.170856
-0.0790613
0.166899
-0.0769447
0.163048
-0.0733796
0.159434
-0.0684342
0.156189
-0.0621971
0.153429
-0.0548348
0.151253
-0.0465809
0.149726
-0.0377169
0.148881
-0.0285469
0.148713
-0.0193711
0.149185
-0.0104617
0.150252
-0.00204376
0.151826
0.00571737
0.153838
0.0127106
0.1562
0.0188652
0.158827
0.0241567
0.161643
0.0285971
0.16458
0.0322233
0.167581
0.0350864
0.17059
0.0372562
0.0388655
0.173481
0.191408
-0.0503901
-0.191667
0.190441
-0.0561394
0.188874
-0.0611201
0.186784
-0.0655252
0.18424
-0.0692853
0.181299
-0.0723223
0.178021
-0.0745378
0.174468
-0.0758187
0.170726
-0.0760572
0.166873
-0.0752086
0.162994
-0.0730653
0.159225
-0.0696107
0.155688
-0.0648972
0.152503
-0.0590127
0.149782
-0.0521132
0.147613
-0.0444126
0.146062
-0.0361656
0.145161
-0.0276454
0.14491
-0.0191201
0.145281
-0.0108331
0.146224
-0.00298698
0.147673
0.00426832
0.149556
0.010828
0.151792
0.016629
0.154302
0.0216465
0.157012
0.0258876
0.159854
0.0293811
0.162772
0.0321682
0.165715
0.0343137
0.0360199
0.16856
0.187981
-0.0497896
-0.188581
0.186757
-0.0549151
0.185007
-0.0593701
0.182791
-0.0633096
0.180166
-0.0666603
0.177184
-0.0693403
0.173899
-0.0712523
0.170368
-0.0722884
0.16668
-0.0723685
0.162891
-0.0714202
0.159094
-0.0692685
0.15541
-0.0659268
0.15195
-0.0614371
0.148824
-0.0558866
0.146133
-0.049422
0.143961
-0.0422404
0.142368
-0.0345731
0.141389
-0.0266661
0.141028
-0.0187596
0.141266
-0.0110707
0.142059
-0.00377989
0.143351
0.00297604
0.145076
0.00910275
0.147162
0.0145433
0.149535
0.0192741
0.152123
0.0232994
0.154862
0.0266422
0.157695
0.0293348
0.160575
0.0314342
0.0332093
0.163385
0.184473
-0.0488973
-0.185365
0.183024
-0.0534659
0.181106
-0.057452
0.178771
-0.0609751
0.17607
-0.0639589
0.173049
-0.0663192
0.169757
-0.0679612
0.166253
-0.068784
0.162615
-0.0687305
0.15889
-0.0676947
0.155173
-0.065552
0.151571
-0.0623245
0.148184
-0.05805
0.145112
-0.0528145
0.142447
-0.0467569
0.140266
-0.0400596
0.138627
-0.032934
0.137563
-0.0256025
0.137084
-0.0182809
0.137177
-0.0111628
0.137806
-0.00440899
0.138924
0.00185796
0.140473
0.00755387
0.142388
0.0126283
0.144602
0.01706
0.147049
0.0208522
0.149667
0.0240239
0.152402
0.0266003
0.155206
0.0286295
0.0304376
0.157978
0.180853
-0.047742
-0.182008
0.179199
-0.0518124
0.17713
-0.0553825
0.17469
-0.0585351
0.171922
-0.0611913
0.16887
-0.0632665
0.165578
-0.0646699
0.162104
-0.0653093
0.158513
-0.0651397
0.154849
-0.0640313
0.151209
-0.0619113
0.147683
-0.0587984
0.144363
-0.0547305
0.141341
-0.0497923
0.1387
-0.0441156
0.136511
-0.0378704
0.134827
-0.0312505
0.133683
-0.024458
0.133089
-0.0176873
0.133037
-0.0111113
0.133502
-0.00487322
0.134441
0.000918469
0.135806
0.0061894
0.137538
0.0108957
0.139579
0.0150195
0.141867
0.0185639
0.144345
0.0215455
0.146961
0.0239845
0.14967
0.0259209
0.0277231
0.152384
0.1771
-0.0463482
-0.178494
0.175264
-0.0499759
0.173061
-0.0531798
0.17053
-0.0560043
0.167708
-0.0583688
0.164632
-0.0601904
0.161345
-0.0613836
0.157903
-0.0618668
0.154356
-0.0615925
0.150753
-0.0604286
0.147183
-0.0583413
0.143728
-0.0553432
0.140471
-0.051474
0.137496
-0.0468171
0.134878
-0.0414981
0.132684
-0.0356756
0.130962
-0.0295285
0.129745
-0.0232409
0.129045
-0.0169882
0.12886
-0.0109254
0.129166
-0.00517966
0.129931
0.000153447
0.131111
0.00500902
0.132657
0.00934964
0.134516
0.013161
0.136633
0.0164472
0.138955
0.0192235
0.141432
0.0215069
0.144022
0.0233307
0.0250893
0.146656
0.173206
-0.0447423
-0.174812
0.17121
-0.0479795
0.168892
-0.0508621
0.166284
-0.0533962
0.163417
-0.0555015
0.160325
-0.0570981
0.157046
-0.0581053
0.153636
-0.0584563
0.15013
-0.0580864
0.146586
-0.0568845
0.143082
-0.0548374
0.139693
-0.0519541
0.136495
-0.0482767
0.133566
-0.0438873
0.130973
-0.0389056
0.128778
-0.0334802
0.127025
-0.0277762
0.125747
-0.021962
0.124955
-0.0161964
0.124648
-0.0106183
0.124809
-0.0053405
0.125409
-0.000446965
0.126412
0.00400622
0.127774
0.00798775
0.129448
0.0114869
0.131386
0.0145094
0.133539
0.0170697
0.135863
0.019183
0.138316
0.0208782
0.0225599
0.140845
0.169165
-0.0429515
-0.170956
0.167032
-0.0458458
0.164616
-0.0484464
0.161943
-0.0507235
0.15904
-0.0525983
0.155937
-0.0539953
0.15267
-0.0548384
0.14929
-0.0550754
0.145824
-0.0546212
0.142337
-0.0533967
0.138895
-0.0513955
0.135568
-0.0486275
0.132428
-0.0451363
0.129543
-0.0410027
0.126978
-0.0363409
0.124788
-0.03129
0.123015
-0.026003
0.121687
-0.0206338
0.120817
-0.0153264
0.120404
-0.0102055
0.120434
-0.00537095
0.120884
-0.000896459
0.12172
0.00316995
0.122905
0.00680259
0.124398
0.00999421
0.126155
0.012752
0.128135
0.0150904
0.130294
0.0170238
0.132594
0.0185783
0.0201558
0.134998
0.164973
-0.0410026
-0.166922
0.162724
-0.0435963
0.160226
-0.0459485
0.1575
-0.0479974
0.154569
-0.049667
0.15146
-0.0508866
0.148209
-0.0515873
0.144856
-0.0517223
0.141431
-0.0511967
0.137997
-0.0499623
0.134614
-0.0480128
0.131347
-0.0453608
0.128263
-0.0420516
0.125424
-0.0381642
0.122891
-0.0338075
0.120713
-0.0291119
0.118928
-0.0242187
0.117564
-0.019269
0.11663
-0.0143933
0.116128
-0.00970329
0.116045
-0.0052878
0.11636
-0.00121102
0.117044
0.0024861
0.118063
0.00578288
0.119382
0.0086752
0.120962
0.0111717
0.122766
0.0132871
0.124754
0.0150353
0.126891
0.0164412
0.0178938
0.129153
0.160626
-0.0389208
-0.162708
0.158281
-0.0412508
0.155715
-0.043383
0.152946
-0.0452286
0.149994
-0.0467149
0.146884
-0.0477767
0.143651
-0.0483546
0.140325
-0.0483959
0.136942
-0.0478135
0.133559
-0.0465797
0.130234
-0.0446876
0.127026
-0.0421531
0.123997
-0.0390228
0.121207
-0.0353739
0.11871
-0.03131
0.116551
-0.0269529
0.114765
-0.0224333
0.113376
-0.0178803
0.112395
-0.0134119
0.11182
-0.00912839
0.111641
-0.00510835
0.111837
-0.00140776
0.112385
0.00193873
0.113253
0.00491478
0.114409
0.00751899
0.11582
0.00976124
0.11745
0.0116564
0.119267
0.0132187
0.121236
0.0144722
0.0157856
0.123344
0.15612
-0.0367296
-0.158311
0.153696
-0.0388274
0.151077
-0.0407633
0.148275
-0.0424269
0.145309
-0.0437493
0.142202
-0.0446698
0.138988
-0.0451408
0.13569
-0.0450977
0.13235
-0.0444728
0.129018
-0.0432485
0.12575
-0.0414192
0.122601
-0.0390043
0.11963
-0.0360512
0.116891
-0.0326348
0.114434
-0.0288533
0.112302
-0.0248205
0.110525
-0.0206568
0.109125
-0.01648
0.10811
-0.0123968
0.107478
-0.00849686
0.10722
-0.00484972
0.107316
-0.001504
0.107743
0.00151108
0.108475
0.00418293
0.109482
0.00651238
0.110733
0.00851029
0.112198
0.0101916
0.113846
0.0115707
0.115646
0.0126718
0.0138382
0.117593
0.15145
-0.0344504
-0.153729
0.148964
-0.0363421
0.146303
-0.0381015
0.143477
-0.0396012
0.140504
-0.0407763
0.137406
-0.0415721
0.134213
-0.0419474
0.130945
-0.0418301
0.127648
-0.0411757
0.124369
-0.0399692
0.121158
-0.0382086
0.11807
-0.035916
0.115158
-0.0331392
0.112474
-0.0299507
0.110064
-0.0264432
0.107966
-0.0227224
0.106208
-0.018899
0.104808
-0.01508
0.103773
-0.0113617
0.1031
-0.00782403
0.102778
-0.00452833
0.102791
-0.00151672
0.103116
0.00118629
0.103728
0.00357126
0.104599
0.00564079
0.105703
0.00740638
0.107012
0.00888293
0.108498
0.0100848
0.110133
0.0110366
0.0120535
0.111918
0.14661
-0.0321027
-0.148958
0.144077
-0.0338093
0.141385
-0.0354089
0.138544
-0.0367605
0.135571
-0.0378029
0.132488
-0.0384892
0.129316
-0.038776
0.126083
-0.0385969
0.122832
-0.0379242
0.119606
-0.0367437
0.116455
-0.0350577
0.11343
-0.0328906
0.110581
-0.0302902
0.107957
-0.0273262
0.105599
-0.0240855
0.103543
-0.0206661
0.101813
-0.0171691
0.100424
-0.0136915
0.099382
-0.0103195
0.0986822
-0.00712425
0.0983136
-0.00415969
0.098259
-0.00146216
0.0984974
0.000947916
0.099005
0.00306367
0.0997568
0.00488902
0.100727
0.0064358
0.101892
0.00771863
0.103225
0.00875183
0.104701
0.00956021
0.0104296
0.106325
0.141593
-0.0297037
-0.143992
0.139026
-0.0312425
0.136314
-0.0326971
0.133467
-0.0339139
0.1305
-0.0348358
0.127436
-0.0354249
0.124291
-0.0356308
0.121097
-0.0354029
0.117894
-0.0347215
0.114726
-0.0335752
0.111638
-0.0319698
0.108679
-0.0299318
0.105897
-0.0275086
0.103338
-0.0247665
0.101039
-0.0217868
0.099032
-0.0186593
0.0973391
-0.0154763
0.0959725
-0.0123248
0.0949351
-0.00928203
0.0942216
-0.00641079
0.0938201
-0.0037582
0.0937135
-0.00135553
0.0938811
0.000780286
0.0943003
0.00264447
0.0949475
0.00424185
0.095799
0.00558427
0.0968318
0.00668585
0.0980229
0.00756073
0.0993495
0.00823362
0.00896111
0.100818
0.136386
-0.0272686
-0.138821
0.133799
-0.0286553
0.131079
-0.0299768
0.128235
-0.0310702
0.125283
-0.0318835
0.122241
-0.0323835
0.119128
-0.0325175
0.115978
-0.0322528
0.112828
-0.031572
0.109721
-0.0304677
0.1067
-0.0289492
0.103813
-0.0270444
0.101104
-0.0247995
0.0986145
-0.0222775
0.0963812
-0.0195534
0.0944315
-0.0167096
0.0927843
-0.0138291
0.0914495
-0.01099
0.0904279
-0.00826046
0.089713
-0.00569585
0.0892919
-0.00333708
0.0891472
-0.0012109
0.0892588
0.000668753
0.0896045
0.00229875
0.0901619
0.00368448
0.0909086
0.00483749
0.0918233
0.00577123
0.0928846
0.00649942
0.0940718
0.00704635
0.00764034
0.0953926
0.130978
-0.0248118
-0.133434
0.128384
-0.0260614
0.125666
-0.0272593
0.122834
-0.028238
0.119904
-0.0289535
0.116891
-0.0293703
0.113817
-0.0294437
0.110717
-0.0291524
0.107626
-0.0284811
0.104585
-0.0274268
0.101637
-0.0260015
0.0988267
-0.0242339
0.096196
-0.0221689
0.0937839
-0.0198653
0.0916229
-0.0173924
0.0897378
-0.0148245
0.0881446
-0.012236
0.0868508
-0.00969612
0.0858552
-0.00726489
0.0851499
-0.00499054
0.0847212
-0.00290838
0.0845514
-0.00104114
0.0846204
0.00059982
0.0849065
0.00201261
0.0853881
0.00320287
0.086044
0.0041816
0.0868538
0.00496139
0.0877979
0.00555537
0.0888572
0.00598701
0.00645782
0.0900397
0.125351
-0.0223481
-0.127815
0.122764
-0.0234742
0.12006
-0.0245553
0.11725
-0.0254277
0.114349
-0.0260532
0.111372
-0.0263931
0.108346
-0.0264173
0.105302
-0.0261087
0.102277
-0.0254558
0.0993089
-0.0244591
0.0964406
-0.0231332
0.0937137
-0.021507
0.0911682
-0.0196234
0.0888399
-0.017537
0.0867583
-0.0153108
0.0849452
-0.0130114
0.083414
-0.0107048
0.0821697
-0.00845182
0.0812095
-0.00630465
0.0805239
-0.00430496
0.0800985
-0.00248298
0.0799152
-0.000857845
0.0799538
0.000561225
0.0801931
0.00177328
0.080612
0.00278396
0.0811902
0.00360348
0.0819081
0.00424343
0.0827474
0.00471614
0.0836904
0.00504392
0.00540321
0.0847451
0.119487
-0.0198929
-0.121942
0.116919
-0.0209062
0.11424
-0.0218762
0.111462
-0.02265
0.108599
-0.02319
0.105668
-0.0234621
0.102698
-0.023447
0.099719
-0.02313
0.0967673
-0.022504
0.0938807
-0.0215726
0.0910997
-0.0203521
0.0884639
-0.0188712
0.086011
-0.0171704
0.0837738
-0.0152998
0.0817789
-0.0133159
0.0800453
-0.0112778
0.0785838
-0.00924332
0.0773971
-0.00726514
0.0764807
-0.00538825
0.075824
-0.00364823
0.0754116
-0.00207062
0.0752252
-0.000671419
0.0752444
0.000541973
0.0754484
0.00156927
0.0758166
0.00241584
0.076329
0.00309101
0.0769672
0.00360521
0.0777136
0.00396981
0.0785519
0.00420562
0.00446585
0.0794892
0.113359
-0.0174625
-0.115789
0.110823
-0.0183701
0.108181
-0.019234
0.105446
-0.0199151
0.10263
-0.0203747
0.0997571
-0.0205887
0.0968531
-0.020543
0.0939494
-0.0202264
0.0910808
-0.0196353
0.0882847
-0.0187765
0.0855997
-0.0176671
0.0830636
-0.0163352
0.0807114
-0.0148182
0.0785732
-0.0131616
0.0766726
-0.0114153
0.075026
-0.00963117
0.0736416
-0.00785889
0.07252
-0.00614362
0.0716553
-0.00452351
0.0710356
-0.0030285
0.0706449
-0.00167995
0.0704645
-0.000491023
0.0704741
0.000532363
0.070653
0.00139036
0.0709809
0.0020879
0.0714387
0.00263328
0.0720082
0.00303566
0.0726727
0.00330532
0.0734171
0.0034613
0.00363538
0.0742475
0.106932
-0.0150731
-0.109321
0.104441
-0.0158796
0.10185
-0.0166427
0.0991696
-0.0172346
0.0964156
-0.0176206
0.0936121
-0.0177852
0.0907862
-0.0177171
0.0879689
-0.017409
0.0851945
-0.0168609
0.0824994
-0.0160814
0.0799207
-0.0150884
0.0774939
-0.0139084
0.0752515
-0.0125758
0.0732208
-0.0111308
0.0714225
-0.0096171
0.0698704
-0.008079
0.0685703
-0.00655879
0.067521
-0.00509437
0.066715
-0.00371754
0.0661396
-0.00245307
0.0657782
-0.00131853
0.0656118
-0.000324615
0.0656201
0.000524008
0.0657828
0.00122772
0.0660798
0.00179089
0.0664924
0.00222068
0.0670031
0.00252496
0.0675956
0.00271276
0.0682558
0.00280113
0.00290217
0.068989
0.100159
-0.0127423
-0.10249
0.0977309
-0.0134517
0.0952054
-0.0141173
0.0925938
-0.0146231
0.0899163
-0.0149431
0.0871967
-0.0150657
0.0844626
-0.014983
0.081745
-0.0146914
0.0790777
-0.0141936
0.0764961
-0.0134998
0.0740354
-0.0126277
0.0717289
-0.011602
0.0696064
-0.0104533
0.0676924
-0.00921679
0.0660049
-0.00792961
0.064555
-0.00662905
0.0633464
-0.00535018
0.0623761
-0.00412413
0.0616354
-0.00297684
0.0611108
-0.00192838
0.0607851
-0.000992891
0.0606394
-0.000178925
0.0606536
0.000509872
0.0608073
0.00107396
0.0610812
0.00151706
0.0614567
0.00184514
0.0619169
0.00206475
0.062446
0.00218363
0.0630306
0.00221661
0.00225773
0.063675
0.0929795
-0.0104901
-0.0952317
0.0906325
-0.0111047
0.0881891
-0.0116739
0.0856647
-0.0120987
0.0830808
-0.0123592
0.0804618
-0.0124467
0.0778358
-0.012357
0.0752337
-0.0120894
0.0726889
-0.0116488
0.0702354
-0.0110463
0.0679064
-0.0102987
0.0657329
-0.00942846
0.0637418
-0.00846226
0.0619548
-0.00742981
0.0603873
-0.00636206
0.0590477
-0.00528945
0.0579378
-0.00424027
0.057053
-0.00323938
0.0563835
-0.00230736
0.0559152
-0.00146002
0.0556308
-0.000708471
0.0555112
-5.94012e-05
0.0555367
0.000484369
0.0556874
0.000923263
0.0559442
0.0012603
0.0562891
0.00150026
0.0567054
0.0016484
0.057178
0.00171108
0.0576937
0.00170086
0.00169515
0.0582563
0.0853095
-0.00833928
-0.0874603
0.0830637
-0.00885885
0.0807238
-0.00933406
0.0783079
-0.00968268
0.075838
-0.00988927
0.0733397
-0.00994841
0.0708415
-0.00985876
0.0683743
-0.00962221
0.0659705
-0.00924506
0.0636626
-0.00873839
0.0614817
-0.00811781
0.0594561
-0.00740285
0.0576099
-0.00661604
0.0559618
-0.00578171
0.0545244
-0.00492468
0.0533039
-0.00406893
0.0523001
-0.00323647
0.0515071
-0.00244643
0.0509143
-0.0017145
0.050507
-0.00105273
0.0502681
-0.000469563
0.0501788
2.99113e-05
0.0502196
0.000443528
0.0503713
0.000771596
0.0506152
0.00101641
0.0509338
0.00118163
0.0513109
0.00127125
0.0517317
0.00129031
0.0521836
0.00124899
0.00120941
0.0526693
0.0770271
-0.00631565
-0.0790507
0.0749086
-0.00674032
0.0726988
-0.00712431
0.0704169
-0.00740077
0.0680865
-0.00755886
0.0657342
-0.00759605
0.0633887
-0.00751331
0.0610807
-0.00731417
0.0588412
-0.00700559
0.0567008
-0.00659804
0.0546882
-0.00610521
0.0528288
-0.00554343
0.0511436
-0.00493084
0.0496484
-0.00428648
0.048353
-0.00362931
0.0472614
-0.00297731
0.0463716
-0.00234673
0.0456768
-0.00175155
0.0451654
-0.00120317
0.044823
-0.000710329
0.0446326
-0.000279153
0.0445759
8.66056e-05
0.0446342
0.000385299
0.0447887
0.00061707
0.0450216
0.000783523
0.0453159
0.000887265
0.045656
0.000931158
0.0460274
0.000918972
0.0464178
0.000858571
0.000797952
0.0468292
0.0679536
-0.00445249
-0.0698168
0.0659962
-0.00478296
0.0639497
-0.00507776
0.0618351
-0.00528616
0.0596776
-0.00540138
0.0575046
-0.00542302
0.0553448
-0.0053535
0.0532278
-0.00519718
0.051183
-0.00496084
0.0492387
-0.00465369
0.0474205
-0.00428698
0.0457506
-0.00387354
0.0442468
-0.00342706
0.0429218
-0.00296148
0.0417828
-0.00249029
0.0408315
-0.00202604
0.0400646
-0.00157986
0.0394743
-0.00116123
0.039049
-0.000777834
0.0387742
-0.000435573
0.0386337
-0.000138643
0.03861
0.00011032
0.0386852
0.000310066
0.0388418
0.00046055
0.0390625
0.000562745
0.0393315
0.000618328
0.0396334
0.000629184
0.0399545
0.000597956
0.0402827
0.000530303
0.000461222
0.0406195
0.0578098
-0.0027938
-0.0594685
0.0560583
-0.00303148
0.0542209
-0.00324036
0.0523205
-0.00338581
0.0503834
-0.00346427
0.048437
-0.00347657
0.0465091
-0.00342566
0.0446278
-0.00331584
0.0428199
-0.00315298
0.0411107
-0.0029444
0.0395222
-0.00269856
0.0380733
-0.00242457
0.036778
-0.0021318
0.0356459
-0.0018294
0.0346816
-0.001526
0.0338849
-0.00122936
0.0332513
-0.000946263
0.0327725
-0.00068241
0.0324371
-0.000442412
0.0322314
-0.000229844
0.03214
-4.73086e-05
0.0321469
0.000103454
0.0322354
0.000221519
0.0323893
0.000306664
0.0325928
0.000359309
0.0328307
0.000380347
0.0330891
0.000370858
0.0333545
0.000332544
0.0336157
0.000269068
0.000203493
0.0338734
0.046132
-0.00140446
-0.0475213
0.0446543
-0.00155381
0.0430968
-0.00168288
0.0414832
-0.00177219
0.0398393
-0.00182038
0.0381914
-0.00182862
0.0365652
-0.00179954
0.034986
-0.00173663
0.0334773
-0.00164423
0.0320602
-0.00152731
0.0307529
-0.00139125
0.0295698
-0.0012415
0.0285214
-0.00108339
0.0276139
-0.000921898
0.0268494
-0.000761498
0.0262261
-0.000606098
0.0257389
-0.000459015
0.0253795
-0.000323002
0.0251374
-0.0002003
0.0250002
-9.26969e-05
0.0249544
-1.52525e-06
0.0249857
7.22259e-05
0.0250793
0.000127874
0.0252209
0.0001651
0.0253963
0.00018392
0.025592
0.000184608
0.0257952
0.000167611
0.0259939
0.000133863
0.0261776
8.53406e-05
3.44247e-05
0.0263467
0.0320924
-0.000398925
-0.033098
0.0310085
-0.000469869
0.0298554
-0.000529736
0.0286539
-0.000570757
0.027427
-0.000593423
0.0261974
-0.000599086
0.0249876
-0.000589664
0.0238182
-0.000567269
0.0227081
-0.000534154
0.0216735
-0.00049264
0.0207272
-0.000445009
0.0198791
-0.00039341
0.0191355
-0.000339784
0.0184994
-0.000285822
0.0179709
-0.000232952
0.0175472
-0.000182355
0.0172231
-0.000134994
0.0169918
-9.16592e-05
0.0168445
-5.30113e-05
0.0167715
-1.97146e-05
0.0167624
7.59229e-06
0.0168049
2.9742e-05
0.0168878
4.5012e-05
0.0169993
5.35812e-05
0.0171279
5.52839e-05
0.0172625
4.99845e-05
0.0173926
3.7564e-05
0.0175084
1.80092e-05
0.0176021
-8.33205e-06
-3.52804e-05
0.0176718
0.014156
-0.0145549
0.0136861
0.0131564
0.0125857
0.0119922
0.0113931
0.0108035
0.0102362
0.00970206
0.00920942
0.00876441
0.008371
0.00803121
0.00774539
0.00751244
0.00733009
0.00719509
0.00710343
0.00705042
0.00703071
0.0070383
0.00706804
0.00711305
0.00716663
0.00722192
0.0072719
0.00730947
0.00732748
0.00731914
0.00728386
0.351225
-0.178773
0.333837
-0.177218
0.317076
-0.174907
0.300819
-0.172324
0.28496
-0.169506
0.269412
-0.16646
0.254121
-0.163204
0.239057
-0.159748
0.224202
-0.156101
0.209551
-0.152271
0.195105
-0.148262
0.180874
-0.14408
0.166872
-0.139727
0.153116
-0.135202
0.139629
-0.130504
0.126435
-0.125627
0.113563
-0.120562
0.101044
-0.115296
0.0889119
-0.10981
0.0772043
-0.104082
0.0659635
-0.0980804
0.0552378
-0.0917639
0.045083
-0.0850769
0.0355657
-0.077943
0.0267681
-0.0702532
0.018798
-0.0618466
0.0118051
-0.0524755
0.00601771
-0.041734
0.00183769
-0.028918
-0.0127173
0.334628
-0.162156
0.318167
-0.160757
0.302124
-0.158864
0.286431
-0.156631
0.27103
-0.154104
0.255887
-0.151317
0.240982
-0.148299
0.226303
-0.145069
0.211848
-0.141646
0.197618
-0.138042
0.183624
-0.134268
0.169877
-0.130333
0.156393
-0.126243
0.143191
-0.122
0.130292
-0.117605
0.117719
-0.113054
0.105496
-0.108339
0.0936504
-0.10345
0.082213
-0.0983724
0.0712162
-0.0930851
0.0606968
-0.0875611
0.050697
-0.0817641
0.0412657
-0.0756457
0.0324617
-0.0691389
0.0243582
-0.0621497
0.0170517
-0.0545401
0.010677
-0.0461008
0.00543846
-0.0364954
0.00167964
-0.0251591
-0.0110376
0.317358
-0.146419
0.301796
-0.145194
0.28649
-0.143558
0.271431
-0.141573
0.256605
-0.139278
0.242002
-0.136715
0.227619
-0.133916
0.213457
-0.130907
0.199521
-0.12771
0.185823
-0.124343
0.172374
-0.12082
0.159192
-0.117151
0.146292
-0.113343
0.133694
-0.109403
0.121418
-0.105329
0.109484
-0.10112
0.0979166
-0.0967714
0.0867392
-0.092273
0.0759791
-0.0876123
0.0656655
-0.0827715
0.0558312
-0.0777268
0.0465139
-0.0724468
0.0377572
-0.066889
0.029614
-0.0609957
0.0221504
-0.054686
0.0154532
-0.047843
0.00964385
-0.0402914
0.00490315
-0.0317547
0.00152384
-0.0217798
-0.00951378
0.300886
-0.131446
0.286051
-0.130359
0.271388
-0.128895
0.256907
-0.127092
0.242617
-0.124988
0.228526
-0.122625
0.214647
-0.120036
0.200989
-0.117249
0.187568
-0.114289
0.174398
-0.111173
0.161495
-0.107917
0.148877
-0.104532
0.13656
-0.101026
0.124562
-0.0974048
0.112902
-0.093669
0.1016
-0.0898175
0.0906745
-0.0858462
0.0801487
-0.0817473
0.0700461
-0.0775097
0.0603926
-0.073118
0.0512174
-0.0685516
0.0425538
-0.0637832
0.034441
-0.0587762
0.0269264
-0.0534811
0.0200694
-0.0478291
0.0139482
-0.0417217
0.00867053
-0.0350138
0.00439473
-0.0274789
0.00136773
-0.0187528
-0.00814604
0.285161
-0.117108
0.270923
-0.116121
0.256815
-0.114787
0.242859
-0.113135
0.229076
-0.111205
0.215486
-0.109035
0.202108
-0.106658
0.188961
-0.104102
0.176061
-0.101389
0.163427
-0.098539
0.151076
-0.0955655
0.139023
-0.09248
0.127287
-0.0892903
0.115884
-0.0860014
0.10483
-0.0826152
0.0941433
-0.0791308
0.0838418
-0.0755447
0.0739449
-0.0718504
0.0644735
-0.0680382
0.0554506
-0.064095
0.046902
-0.0600031
0.0388576
-0.0557388
0.0313523
-0.0512709
0.0244286
-0.0465574
0.0181398
-0.0415402
0.0125554
-0.0361373
0.00777062
-0.030229
0.00392228
-0.0236306
0.00121781
-0.0160484
-0.00692824
0.270158
-0.103308
0.256441
-0.102404
0.242837
-0.101183
0.229377
-0.0996747
0.216087
-0.0979155
0.202994
-0.0959416
0.19012
-0.0937839
0.177486
-0.091468
0.165112
-0.0890152
0.153016
-0.0864428
0.141214
-0.0837642
0.129724
-0.0809899
0.118561
-0.078127
0.10774
-0.0751802
0.0972757
-0.0721512
0.0871844
-0.0690396
0.077482
-0.0658423
0.0681857
-0.062554
0.0593137
-0.0591663
0.0508866
-0.055668
0.0429274
-0.0520438
0.0354625
-0.0482739
0.0285233
-0.0443317
0.0221476
-0.0401817
0.016383
-0.0357756
0.0112912
-0.0310455
0.00695529
-0.0258931
0.00349315
-0.0201685
0.00107906
-0.0136343
-0.00584917
0.255881
-0.0899916
0.242644
-0.0891672
0.229519
-0.0880587
0.21654
-0.0866959
0.203738
-0.0851133
0.19114
-0.0833435
0.178771
-0.0814143
0.166651
-0.0793489
0.154802
-0.0771662
0.143241
-0.0748816
0.131984
-0.0725072
0.121046
-0.0700521
0.110442
-0.0675228
0.100185
-0.0649232
0.0902891
-0.0622551
0.0807677
-0.0595182
0.0716352
-0.0567098
0.0629066
-0.0538254
0.0545984
-0.0508581
0.0467286
-0.0477982
0.0393176
-0.0446329
0.0323892
-0.0413454
0.025971
-0.0379136
0.0200972
-0.0343079
0.0148098
-0.0304882
0.0101632
-0.0263989
0.00623011
-0.02196
0.00311156
-0.0170499
0.000954692
-0.0114774
-0.00489448
0.242341
-0.0771339
0.229567
-0.0763932
0.216912
-0.0754036
0.204411
-0.0741943
0.192094
-0.072797
0.179991
-0.0712404
0.168126
-0.0695488
0.156519
-0.0677423
0.145191
-0.0658375
0.134156
-0.0638476
0.123432
-0.0617829
0.113032
-0.0596515
0.102967
-0.0574586
0.0932521
-0.0552079
0.0838976
-0.0529007
0.0749162
-0.0505368
0.0663205
-0.048114
0.0581237
-0.0456286
0.0503403
-0.0430747
0.0429865
-0.0404443
0.0360804
-0.0377268
0.0296431
-0.0349081
0.0236995
-0.03197
0.0182797
-0.0288881
0.0134213
-0.0256298
0.00917219
-0.0221498
0.00559554
-0.0183834
0.00277852
-0.0142329
0.000846031
-0.00954491
-0.00404845
0.229554
-0.0647274
0.217239
-0.0640781
0.205051
-0.0632164
0.193027
-0.06217
0.181197
-0.0609668
0.169588
-0.0596313
0.158223
-0.0581842
0.147123
-0.0566426
0.136306
-0.0550203
0.125787
-0.0533284
0.11558
-0.0515756
0.105697
-0.0497685
0.0961497
-0.0479116
0.0869495
-0.0460077
0.078107
-0.0440581
0.0696329
-0.0420626
0.0615383
-0.0400195
0.0538351
-0.0379254
0.0465361
-0.0357758
0.0396557
-0.0335639
0.0332101
-0.0312812
0.0272181
-0.0289161
0.0217021
-0.0264539
0.0166889
-0.0238749
0.0122118
-0.0211528
0.00831316
-0.0182511
0.00504827
-0.0151185
0.00249262
-0.0116772
0.000753101
-0.0078054
-0.00329535
0.217522
-0.0527745
0.205668
-0.0522248
0.193952
-0.0514997
0.182406
-0.0506242
0.171061
-0.0496218
0.159943
-0.0485129
0.149073
-0.0473145
0.138471
-0.0460404
0.128153
-0.044702
0.118132
-0.0433081
0.108423
-0.0418659
0.0990347
-0.0403806
0.0899791
-0.0388559
0.0812654
-0.037294
0.0729032
-0.035696
0.0649021
-0.0340616
0.057272
-0.0323894
0.0500236
-0.030677
0.0431682
-0.0289204
0.0367187
-0.0271145
0.0306898
-0.0252522
0.0250982
-0.0233246
0.0199641
-0.0213198
0.0153115
-0.0192223
0.0111701
-0.0170114
0.00757747
-0.0146585
0.00458237
-0.0121234
0.00225073
-0.0093456
0.000675057
-0.00622972
-0.00262029
0.206237
-0.0412814
0.19485
-0.0408381
0.183607
-0.0402562
0.17254
-0.0395571
0.161677
-0.0387596
0.151044
-0.0378797
0.140661
-0.0369308
0.130544
-0.0359237
0.120709
-0.0348672
0.111169
-0.0337682
0.101936
-0.0326323
0.0930182
-0.0314634
0.0844267
-0.0302643
0.0761696
-0.0290369
0.0682555
-0.0277819
0.0606931
-0.0264991
0.0534912
-0.0251875
0.0466594
-0.0238451
0.0402079
-0.0224689
0.0341484
-0.021055
0.0284941
-0.0195979
0.0232602
-0.0180907
0.0184648
-0.0165244
0.0141296
-0.0148872
0.0102814
-0.0131632
0.00695382
-0.0113309
0.00419014
-0.00935969
0.00204865
-0.0072041
0.000610534
-0.00479161
-0.00200976
0.195675
-0.0302545
0.184759
-0.029922
0.17399
-0.0294873
0.1634
-0.0289669
0.153016
-0.028375
0.142859
-0.0277234
0.13295
-0.0270217
0.123304
-0.026278
0.113936
-0.0254985
0.104856
-0.0246885
0.0960755
-0.0238518
0.0876035
-0.0229913
0.0794484
-0.0221092
0.0716183
-0.0212067
0.0641207
-0.0202844
0.0569636
-0.019342
0.0501549
-0.0183789
0.0437034
-0.0173936
0.0376183
-0.0163839
0.0319104
-0.015347
0.0265915
-0.014279
0.0216757
-0.0131748
0.0171794
-0.0120281
0.0131223
-0.0108302
0.00952889
-0.00956976
0.00642938
-0.00823136
0.0038629
-0.00679321
0.00188159
-0.00522279
0.00055791
-0.00346793
-0.00145185
0.185801
-0.0196985
0.175357
-0.0194784
0.165061
-0.0191916
0.154944
-0.0188492
0.145029
-0.0184606
0.135339
-0.0180333
0.125891
-0.0175737
0.1167
-0.017087
0.107779
-0.0165773
0.0991382
-0.0160479
0.0907877
-0.0155013
0.0827359
-0.0149395
0.0749903
-0.0143637
0.0675584
-0.0137748
0.0604472
-0.0131732
0.0536639
-0.0125587
0.0472158
-0.0119308
0.0411109
-0.0112887
0.0353579
-0.0106309
0.0299663
-0.00995549
0.0249474
-0.00926009
0.020314
-0.00854142
0.0160813
-0.00779531
0.0122673
-0.00701626
0.00889458
-0.006197
0.0059908
-0.00532758
0.00359168
-0.00439409
0.00174462
-0.00337574
0.000515484
-0.00223879
-0.000936362
0.176566
-0.00961452
0.166594
-0.00950605
0.156767
-0.00936498
0.147115
-0.00919689
0.137661
-0.00900629
0.128424
-0.00879692
0.119422