/*--------------------------------*- C++ -*----------------------------------*\
  =========                 |
  \\      /  F ield         | OpenFOAM: The Open Source CFD Toolbox
   \\    /   O peration     | Website:  https://openfoam.org
    \\  /    A nd           | Version:  12
     \\/     M anipulation  |
\*---------------------------------------------------------------------------*/
FoamFile
{
    format      ascii;
    class       volScalarField;
    location    "380";
    object      pMean;
}
// * * * * * * * * * * * * * * * * * * * * * * * * * * * * * * * * * * * * * //

dimensions      [0 2 -2 0 0 0 0];

internalField   nonuniform List<scalar> 
6750
(
0.0125477
0.0125222
0.0124817
0.0123086
0.011319
0.0141827
0.0141523
0.0140326
0.0137746
0.013429
0.016076
0.0160235
0.0159008
0.0157101
0.0155664
0.0180455
0.0179583
0.0178418
0.0177083
0.0176396
0.0199933
0.0198622
0.0197362
0.019631
0.0196005
0.0218397
0.0216604
0.0215141
0.0214198
0.0214076
0.0235362
0.0233073
0.0231371
0.0230468
0.0230443
0.0250533
0.0247757
0.0245815
0.0244933
0.0244974
0.0263726
0.0260486
0.0258325
0.0257463
0.0257554
0.0274838
0.0271175
0.0268825
0.0267988
0.0268118
0.0283839
0.0279806
0.0277306
0.0276498
0.0276657
0.0290765
0.0286426
0.0283818
0.0283042
0.028322
0.0295716
0.0291131
0.0288465
0.0287718
0.0287906
0.029884
0.0294066
0.0291404
0.0290673
0.0290858
0.0300274
0.0295443
0.0292834
0.0292081
0.0292247
0.0300275
0.0295444
0.0292835
0.0292082
0.0292248
0.0298843
0.0294069
0.0291407
0.0290676
0.0290861
0.0295721
0.0291136
0.028847
0.0287723
0.0287912
0.0290772
0.0286433
0.0283825
0.0283049
0.0283228
0.0283848
0.0279815
0.0277315
0.0276508
0.0276667
0.0274849
0.0271186
0.0268836
0.0268
0.0268129
0.0263739
0.0260499
0.0258338
0.0257476
0.0257567
0.0250547
0.0247771
0.0245829
0.0244948
0.0244988
0.0235378
0.0233089
0.0231387
0.0230484
0.023046
0.0218414
0.0216621
0.0215158
0.0214215
0.0214093
0.0199951
0.019864
0.019738
0.0196328
0.0196024
0.0180474
0.0179602
0.0178437
0.0177103
0.0176415
0.0160779
0.0160255
0.0159028
0.0157121
0.0155683
0.0141847
0.0141543
0.0140346
0.0137766
0.0134309
0.0125497
0.0125242
0.0124838
0.0123107
0.011321
0.00540068
0.00595133
0.00733986
0.00835907
0.00909316
0.00967569
0.0101339
0.0104818
0.0107466
0.010936
0.0110275
0.0110849
0.0110844
0.0110233
0.0108997
0.0107093
0.0104476
0.0101152
0.00971254
0.00923828
0.00868877
0.00815566
0.00758661
0.00699609
0.00640226
0.00581646
0.00524745
0.00471167
0.00421928
0.00367247
0.00918916
0.00993231
0.010685
0.0110544
0.0112614
0.0113886
0.011439
0.0114239
0.0113693
0.0112688
0.0111019
0.0109632
0.0108193
0.0106739
0.0105253
0.0103642
0.0101775
0.00995289
0.00967857
0.00934974
0.00897925
0.00850315
0.00799926
0.00745661
0.00688234
0.00628691
0.00567768
0.00507063
0.00451062
0.0039581
0.0116438
0.0118119
0.0121096
0.0122493
0.0123159
0.0123209
0.0122538
0.0121261
0.0119555
0.0117081
0.0114028
0.0111129
0.0108055
0.0104919
0.0101778
0.00986327
0.00954471
0.00921649
0.00887215
0.00850595
0.00811518
0.00770015
0.00726262
0.00680207
0.00632225
0.00582803
0.00531957
0.00480736
0.00437499
0.00407306
0.0131123
0.0128994
0.0130247
0.0131008
0.0131073
0.0130431
0.0129038
0.0127051
0.0124525
0.0120872
0.0116815
0.011263
0.0108112
0.0103426
0.00986901
0.00939853
0.00893684
0.00848679
0.00804891
0.00762133
0.00720159
0.00679265
0.00638902
0.00598698
0.0055853
0.00518314
0.00477314
0.00435749
0.00405442
0.00404749
0.0142463
0.0138983
0.0139484
0.0139597
0.0138889
0.0137425
0.0135213
0.0132385
0.0128887
0.012411
0.0119042
0.0113615
0.0107785
0.0101746
0.00956574
0.00896569
0.00838608
0.0078354
0.00731875
0.00683758
0.00639072
0.00597644
0.00559018
0.00522606
0.00487918
0.00454469
0.00420905
0.00386599
0.00366152
0.00392692
0.0152468
0.0148656
0.0148561
0.0147925
0.0146408
0.014412
0.0141073
0.0137361
0.0132794
0.012697
0.0120853
0.0114227
0.0107166
0.00998896
0.00925887
0.00854434
0.00786126
0.00722197
0.00663456
0.00610266
0.00562589
0.00520095
0.0048224
0.00448288
0.00417523
0.0038919
0.00361445
0.00332994
0.00320706
0.00371791
0.0161466
0.0157735
0.0157094
0.0155736
0.0153466
0.0150398
0.014655
0.014197
0.0136292
0.0129509
0.0122344
0.0114569
0.0106346
0.00979087
0.00894799
0.00812741
0.00734834
0.00662604
0.00597092
0.00538812
0.00487796
0.00443683
0.00405818
0.00373342
0.00345382
0.0032098
0.00297875
0.00274314
0.00269201
0.0034206
0.0169652
0.0166261
0.0165141
0.01631
0.0160116
0.0156289
0.0151665
0.0146222
0.0139434
0.0131768
0.0123556
0.0114678
0.0105347
0.00958126
0.00863229
0.00771212
0.00684266
0.00604151
0.00532086
0.0046871
0.00414109
0.00367909
0.00329385
0.0029758
0.00271506
0.00250027
0.00230545
0.00210985
0.0021219
0.00303839
0.0177232
0.0174365
0.0172815
0.0170112
0.0166427
0.0161862
0.0156469
0.0150117
0.01423
0.0133763
0.0124514
0.0114572
0.0104179
0.00935981
0.00831011
0.00729553
0.00634017
0.00546351
0.00467919
0.00399454
0.00341086
0.00292436
0.00252727
0.00220929
0.00195967
0.00176558
0.00159803
0.00143468
0.00150238
0.00257656
0.0184365
0.018214
0.0180195
0.0176838
0.0172462
0.016718
0.0161008
0.0153679
0.0144948
0.0135509
0.0125243
0.011427
0.010285
0.0091261
0.00797966
0.00687447
0.00583647
0.00488667
0.00403988
0.00330418
0.00268123
0.00216718
0.0017539
0.00143053
0.00118554
0.001005
0.000856964
0.000719122
0.000836334
0.00204023
0.0191169
0.0189662
0.018735
0.0183337
0.0178266
0.0172277
0.0165318
0.0156978
0.0147409
0.0137038
0.0125771
0.0113789
0.0101365
0.00887954
0.0076391
0.00644582
0.00532724
0.00430568
0.0033969
0.00260961
0.00194574
0.00140142
0.000968202
0.000634783
0.000389065
0.000215967
8.09263e-05
-3.71211e-05
0.000124532
0.00143345
0.019774
0.0197005
0.0194347
0.0189668
0.0183897
0.0177208
0.0169421
0.0160088
0.0149707
0.0138384
0.0126122
0.0113143
0.00997297
0.0086194
0.00728649
0.00600648
0.00480831
0.00371542
0.00274441
0.00190451
0.0011979
0.000620665
0.000164113
-0.000183437
-0.000434566
-0.000605488
-0.000733057
-0.000836234
-0.000634446
0.000758753
0.0204169
0.0204242
0.0201256
0.0195908
0.0189439
0.0182009
0.0173324
0.0163095
0.0151862
0.0139572
0.0126316
0.0112343
0.00979438
0.00834468
0.00691974
0.00555326
0.00427545
0.00311076
0.00207654
0.00118249
0.000430989
-0.000181894
-0.000665068
-0.00103053
-0.00129128
-0.00146467
-0.00158973
-0.00168237
-0.00144401
1.67183e-05
0.0210547
0.021144
0.0208148
0.0202121
0.0194944
0.0186749
0.0177103
0.0166041
0.0153903
0.0140629
0.0126374
0.0111398
0.00960063
0.00805415
0.00653649
0.00508273
0.00372421
0.00248635
0.00138718
0.000436813
-0.000362145
-0.00101366
-0.00152682
-0.00191391
-0.00218827
-0.00236844
-0.00249552
-0.0025815
-0.00230959
-0.000794271
0.0216946
0.0218697
0.021511
0.020839
0.0200486
0.0191469
0.0180849
0.0168958
0.0155866
0.0141587
0.0126314
0.0110316
0.00939129
0.00774628
0.00613411
0.00459114
0.00314984
0.00183649
0.000669775
-0.000339746
-0.00118929
-0.0018828
-0.00242955
-0.00284203
-0.00313399
-0.00332515
-0.00345855
-0.0035415
-0.00323871
-0.00167833
0.0223441
0.0226128
0.0222264
0.0214837
0.0206134
0.0196191
0.0184665
0.0171884
0.015779
0.0142473
0.012615
0.0109101
0.00916564
0.00741914
0.00570947
0.00407425
0.00254699
0.00115484
-8.28808e-05
-0.00115519
-0.00205909
-0.00279853
-0.00338287
-0.0038248
-0.00413848
-0.00434491
-0.00448892
-0.00457241
-0.00424119
-0.00264237
0.0230134
0.023386
0.0229729
0.0221554
0.0211981
0.020102
0.0188618
0.017486
0.0159713
0.0143317
0.01259
0.0107754
0.00892256
0.0070703
0.00525888
0.00352712
0.00190957
0.000434226
-0.000878968
-0.0020186
-0.00298143
-0.00377136
-0.00439789
-0.00487383
-0.00521368
-0.00543991
-0.00559905
-0.00568678
-0.00532943
-0.00369645
0.0237195
0.0242029
0.0237647
0.0228624
0.0218077
0.0206105
0.0192766
0.0177946
0.0161683
0.0144147
0.0125576
0.0106275
0.00866041
0.00669664
0.00477779
0.00294385
0.0012304
-0.000333751
-0.001728
-0.00294049
-0.00396775
-0.00481361
-0.00548764
-0.00600278
-0.00637388
-0.00662493
-0.00680411
-0.00690016
-0.00651906
-0.00485436
0.024485
0.0250751
0.0246136
0.0236199
0.0224536
0.0211563
0.0197169
0.01812
0.0163746
0.0144993
0.0125191
0.0104657
0.00837681
0.0062941
0.00426051
0.00231721
0.000500766
-0.00115915
-0.00264131
-0.00393341
-0.00503171
-0.00593995
-0.00666774
-0.00722816
-0.0076364
-0.00791802
-0.00812273
-0.0082317
-0.00782938
-0.0061343
0.0253294
0.0260239
0.0255388
0.0244414
0.0231542
0.0217497
0.0201925
0.0184706
0.016596
0.0145888
0.0124753
0.0102888
0.00806838
0.00585729
0.00369974
0.00163808
-0.000290107
-0.00205436
-0.00363279
-0.00501264
-0.00618991
-0.00716822
-0.00795721
-0.00857004
-0.00902227
-0.00934116
-0.00957785
-0.00970526
-0.00928496
-0.00756014
0.0262804
0.0270815
0.0265624
0.0253428
0.0239328
0.0224052
0.0207157
0.0188555
0.0168386
0.0146864
0.0124267
0.0100944
0.00773023
0.00537888
0.00308589
0.000894748
-0.00115597
-0.003035
-0.00471984
-0.00619729
-0.00746305
-0.00852066
-0.00937975
-0.0100535
-0.010558
-0.0109222
-0.0111988
-0.0113511
-0.0109168
-0.00916299
0.0273795
0.0282737
0.0277082
0.0263591
0.0248124
0.0231409
0.0213014
0.0192858
0.0171094
0.0147952
0.0123727
0.00987862
0.00735527
0.00484877
0.00240602
7.16678e-05
-0.0021148
-0.00412134
-0.00592489
-0.00751182
-0.00887759
-0.0100256
-0.0109655
-0.0117105
-0.0122771
-0.0126963
-0.0130221
-0.0132077
-0.0127649
-0.0109837
0.028676
0.0296478
0.0290198
0.0275299
0.0258202
0.0239803
0.0219678
0.0197743
0.017416
0.0149179
0.0123115
0.00963514
0.00693297
0.00425262
0.0016423
-0.000852275
-0.00319074
-0.00534039
-0.00727763
-0.0089885
-0.0104682
-0.0117201
-0.0127538
-0.0135826
-0.0142237
-0.0147096
-0.015096
-0.0153255
-0.0148822
-0.013077
0.030242
0.0312692
0.0305609
0.0289003
0.0269938
0.0249541
0.0227384
0.0203369
0.0177672
0.0150565
0.0122385
0.0093535
0.00644749
0.00356962
0.000769344
-0.00190663
-0.00441721
-0.00672916
-0.00881853
-0.0106711
-0.0122818
-0.0136542
-0.0147977
-0.0157257
-0.0164561
-0.0170235
-0.0174848
-0.0177718
-0.0173393
-0.0155173
0.0321941
0.0332359
0.0324088
0.0305317
0.0283851
0.0261035
0.0236432
0.0209929
0.0181722
0.0152107
0.0121447
0.00901661
0.00587435
0.00276858
-0.00025007
-0.00313414
-0.00584205
-0.00834027
-0.0106047
-0.0126209
-0.014384
-0.0158973
-0.0171706
-0.0182172
-0.0190556
-0.019723
-0.0202771
-0.0206387
-0.0202338
-0.018409
0.0346733
0.0356819
0.034673
0.032517
0.0300693
0.0274864
0.0247232
0.0217676
0.018641
0.0153766
0.0120132
0.00859592
0.00517455
0.00180121
-0.00147261
-0.00459904
-0.00753644
-0.0102514
-0.0127199
-0.0149278
-0.0168703
-0.0185507
-0.0199788
-0.0211682
-0.0221383
-0.0229285
-0.0235979
-0.0240566
-0.0237048
-0.0219028
0.0379484
0.0388149
0.0375235
0.0349966
0.0321595
0.0291882
0.0260366
0.0226931
0.0191822
0.0155408
0.0118114
0.00804167
0.00428338
0.000589685
-0.00298769
-0.00640127
-0.00961015
-0.0125818
-0.0152929
-0.0177298
-0.0198879
-0.0217707
-0.0233878
-0.0247531
-0.0258861
-0.0268285
-0.0276405
-0.0282251
-0.0279647
-0.0262328
0.0424427
0.0429535
0.0411996
0.0381606
0.0348041
0.0313162
0.027652
0.0238019
0.0197949
0.0156729
0.0114822
0.00727381
0.003101
-0.000982687
-0.00492641
-0.00868443
-0.012218
-0.0154968
-0.0184994
-0.0212131
-0.0236343
-0.0257669
-0.02762
-0.0292073
-0.0305489
-0.0316868
-0.032681
-0.0334343
-0.033336
-0.0317736
0.0490487
0.0488223
0.0463132
0.0425557
0.0384742
0.0342443
0.029833
0.0252445
0.0205199
0.0157105
0.0108703
0.00605452
0.00131811
-0.00328665
-0.00771213
-0.0119169
-0.015867
-0.0195365
-0.0229065
-0.0259655
-0.0287131
-0.0311618
-0.0333086
-0.0351664
-0.036755
-0.0381133
-0.0392967
-0.040224
-0.0403615
-0.0391549
0.0606456
0.0587095
0.0546008
0.0495702
0.0442825
0.0388347
0.0332217
0.0274789
0.0216651
0.0158419
0.0100676
0.004397
-0.00112075
-0.00644251
-0.0115321
-0.0163603
-0.0209041
-0.0251466
-0.0290768
-0.0326894
-0.0359774
-0.0389314
-0.0415702
-0.0438998
-0.0459296
-0.0476843
-0.0492105
-0.050494
-0.0512075
-0.0507339
0.00894988
0.00993248
0.0116937
0.0131035
0.0142959
0.0154117
0.0164825
0.0175169
0.0185243
0.0195144
0.0204955
0.0214761
0.0224649
0.0234713
0.0245048
0.0255769
0.0267018
0.0278969
0.0291826
0.0305821
0.0321258
0.0338552
0.0358216
0.0380951
0.0407711
0.0439925
0.0479537
0.052894
0.0590296
0.0670411
0.0132997
0.014316
0.0154756
0.0164509
0.0173291
0.0181708
0.0189876
0.0197837
0.0205665
0.0213441
0.0221244
0.0229157
0.0237264
0.0245656
0.0254435
0.026372
0.0273656
0.0284419
0.0296222
0.0309326
0.0324073
0.0340919
0.0360461
0.0383526
0.0411275
0.044542
0.0488425
0.0543794
0.0616392
0.0713585
0.0156921
0.0166003
0.0174834
0.0182772
0.0190504
0.0198202
0.0205839
0.0213425
0.0221011
0.0228658
0.0236428
0.0244389
0.0252618
0.02612
0.0270233
0.0279837
0.0290157
0.0301374
0.031371
0.0327445
0.0342951
0.0360718
0.0381405
0.0405929
0.0435588
0.0472264
0.0518744
0.0579091
0.0659826
0.076928
0.0177887
0.0185875
0.0193556
0.0200691
0.0207777
0.021492
0.0222114
0.0229388
0.0236795
0.0244391
0.0252237
0.0260396
0.0268944
0.0277965
0.028756
0.0297851
0.0308988
0.0321156
0.033459
0.0349588
0.0366542
0.0385973
0.0408584
0.0435347
0.0467638
0.0507434
0.0557663
0.0622538
0.0709474
0.082718
0.019746
0.020451
0.0211286
0.0217702
0.0224181
0.023083
0.0237658
0.0244695
0.0251986
0.0259581
0.0267535
0.027591
0.0284781
0.0294232
0.0304368
0.0315315
0.032723
0.0340307
0.0354793
0.0371005
0.0389356
0.0410394
0.043486
0.0463772
0.049856
0.0541277
0.0594943
0.0663864
0.075628
0.0881416
0.0215345
0.0221559
0.0227563
0.0233373
0.0239372
0.0245654
0.0252226
0.0259114
0.0266357
0.0274001
0.0282096
0.0290705
0.0299897
0.0309762
0.0320403
0.0331952
0.0344571
0.0358461
0.037388
0.039116
0.0410732
0.0433168
0.0459238
0.0489996
0.0526922
0.0572131
0.0628733
0.0701152
0.0798438
0.0930607
0.02315
0.0236963
0.024231
0.0247625
0.0253248
0.0259254
0.0265647
0.0272449
0.0279694
0.0287423
0.0295685
0.0304538
0.0314053
0.0324318
0.033544
0.0347551
0.0360817
0.0375447
0.0391708
0.0409941
0.0430592
0.0454251
0.0481712
0.0514059
0.0552809
0.0600131
0.0659217
0.073462
0.0836049
0.0974458
0.0245867
0.0250656
0.0255439
0.0260349
0.0265675
0.0271473
0.0277743
0.0284503
0.0291782
0.0299617
0.0308054
0.0317149
0.0326974
0.0337613
0.0349176
0.0361799
0.0375649
0.0390942
0.040795
0.0427024
0.044862
0.0473344
0.0502006
0.0535714
0.0576017
0.0625125
0.0686304
0.0764219
0.0869047
0.101271
0.0258359
0.0262543
0.0266847
0.0271429
0.0276525
0.0282169
0.0288358
0.0295106
0.0302437
0.0310384
0.0318991
0.0328313
0.0338418
0.0349394
0.0361349
0.0374421
0.0388782
0.0404649
0.0422302
0.0442097
0.04645
0.0490127
0.0519803
0.0554653
0.0596252
0.0646842
0.0709753
0.0789744
0.0897282
0.104522
0.0268905
0.0272558
0.0276464
0.0280788
0.0285708
0.0291241
0.0297379
0.0304133
0.0311522
0.0319578
0.032834
0.0337862
0.0348213
0.0359478
0.0371768
0.0385221
0.0400012
0.0416361
0.0434551
0.0454945
0.0478015
0.0504386
0.0534892
0.0570674
0.0613325
0.0665114
0.0729421
0.0811083
0.0920692
0.107206
0.0277477
0.028068
0.0284268
0.0288395
0.0293184
0.0298638
0.0304746
0.0311515
0.0318961
0.0327113
0.0336008
0.0345699
0.0356253
0.0367757
0.0380321
0.0394084
0.0409223
0.0425961
0.0444583
0.0465456
0.0489058
0.0516019
0.0547183
0.0583701
0.0627179
0.0679906
0.0745302
0.0828265
0.0939381
0.109348
0.0284099
0.028694
0.0290286
0.0294268
0.0298964
0.0304364
0.0310455
0.0317241
0.0324737
0.0332968
0.034197
0.0351795
0.0362509
0.0374199
0.0386975
0.0400978
0.0416386
0.0433422
0.0452374
0.0473614
0.0497621
0.052503
0.0556692
0.0593764
0.0637864
0.0691294
0.0757505
0.0841436
0.0953591
0.110981
0.0288849
0.029142
0.0294594
0.0298478
0.0303111
0.0308475
0.0314558
0.032136
0.0328895
0.0337185
0.0346266
0.0356189
0.0367019
0.0378844
0.0391774
0.0405949
0.0421549
0.0438798
0.0457987
0.0479487
0.0503782
0.053151
0.0563524
0.0600988
0.0645526
0.0699449
0.0766233
0.0850838
0.096365
0.112144
0.029185
0.0294246
0.0297312
0.0301135
0.030573
0.0311074
0.0317154
0.0323968
0.0331528
0.0339857
0.034899
0.0358976
0.0369881
0.0381792
0.039482
0.0409106
0.0424827
0.0442213
0.0461551
0.0483217
0.0507694
0.0535623
0.0567859
0.060557
0.0650385
0.0704616
0.077176
0.085678
0.0969925
0.112885
0.029326
0.0295571
0.0298586
0.0302381
0.0306959
0.0312295
0.0318373
0.0325194
0.0332768
0.0341116
0.0350273
0.036029
0.0371231
0.0383184
0.0396259
0.0410597
0.0426378
0.0443828
0.0463238
0.0484983
0.0509547
0.0537572
0.0569915
0.0607744
0.065269
0.0707068
0.0774384
0.0859596
0.0972833
0.113244
0.0293261
0.0295572
0.0298587
0.0302382
0.030696
0.0312296
0.0318374
0.0325195
0.0332769
0.0341117
0.0350274
0.0360291
0.0371232
0.0383185
0.039626
0.0410598
0.0426378
0.0443829
0.0463239
0.0484983
0.0509548
0.0537573
0.0569915
0.0607745
0.065269
0.0707068
0.0774384
0.0859596
0.0972834
0.113244
0.0291853
0.0294249
0.0297315
0.0301138
0.0305733
0.0311077
0.0317157
0.0323971
0.0331531
0.033986
0.0348993
0.0358978
0.0369883
0.0381794
0.0394822
0.0409108
0.0424829
0.0442215
0.0461553
0.0483218
0.0507695
0.0535624
0.0567861
0.0605572
0.0650387
0.0704618
0.0771761
0.0856781
0.0969926
0.112885
0.0288855
0.0291426
0.02946
0.0298483
0.0303116
0.0308481
0.0314563
0.0321365
0.03289
0.033719
0.0346271
0.0356193
0.0367023
0.0378848
0.0391777
0.0405953
0.0421552
0.0438801
0.045799
0.047949
0.0503785
0.0531512
0.0563526
0.0600991
0.0645529
0.0699451
0.0766234
0.0850839
0.0963652
0.112144
0.0284107
0.0286948
0.0290293
0.0294276
0.0298971
0.0304371
0.0310462
0.0317248
0.0324744
0.0332974
0.0341976
0.0351801
0.0362514
0.0374204
0.038698
0.0400983
0.041639
0.0433426
0.0452378
0.0473617
0.0497624
0.0525034
0.0556695
0.0593768
0.0637868
0.0691297
0.0757508
0.0841438
0.0953594
0.110981
0.0277486
0.0280689
0.0284277
0.0288404
0.0293193
0.0298647
0.0304755
0.0311523
0.0318969
0.0327121
0.0336016
0.0345706
0.035626
0.0367763
0.0380327
0.039409
0.0409228
0.0425966
0.0444588
0.0465461
0.0489063
0.0516024
0.0547188
0.0583705
0.0627183
0.0679911
0.0745306
0.0828268
0.0939386
0.109349
0.0268916
0.027257
0.0276476
0.0280799
0.0285719
0.0291252
0.029739
0.0304143
0.0311532
0.0319588
0.0328349
0.0337871
0.0348221
0.0359486
0.0371776
0.0385228
0.0400018
0.0416367
0.0434557
0.0454951
0.0478021
0.0504391
0.0534897
0.0570679
0.0613331
0.0665121
0.0729428
0.0811089
0.0920698
0.107206
0.0258372
0.0262557
0.026686
0.0271442
0.0276537
0.0282181
0.0288371
0.0295118
0.0302448
0.0310395
0.0319002
0.0328323
0.0338428
0.0349403
0.0361358
0.037443
0.038879
0.0404657
0.0422309
0.0442104
0.0464507
0.0490134
0.0519808
0.0554659
0.0596258
0.064685
0.0709762
0.0789753
0.0897289
0.104522
0.0245882
0.0250671
0.0255454
0.0260363
0.0265689
0.0271487
0.0277757
0.0284516
0.0291794
0.0299629
0.0308066
0.0317161
0.0326984
0.0337623
0.0349186
0.0361808
0.0375658
0.0390951
0.0407959
0.0427032
0.0448628
0.0473351
0.0502013
0.0535721
0.0576024
0.0625135
0.0686316
0.076423
0.0869055
0.101271
0.0231516
0.023698
0.0242326
0.0247641
0.0253264
0.0259269
0.0265662
0.0272463
0.0279708
0.0287436
0.0295698
0.030455
0.0314065
0.032433
0.0335451
0.0347561
0.0360827
0.0375457
0.0391717
0.040995
0.0430601
0.0454259
0.0481719
0.0514066
0.0552818
0.0600143
0.0659232
0.0734633
0.0836056
0.0974461
0.0215363
0.0221576
0.022758
0.023339
0.0239389
0.024567
0.0252242
0.025913
0.0266373
0.0274016
0.0282111
0.0290718
0.029991
0.0309774
0.0320415
0.0331964
0.0344582
0.0358472
0.0373891
0.0391171
0.0410742
0.0433177
0.0459246
0.0490004
0.0526933
0.0572145
0.062875
0.0701167
0.0798446
0.0930609
0.0197479
0.0204528
0.0211304
0.021772
0.0224199
0.0230847
0.0237675
0.0244711
0.0252002
0.0259596
0.026755
0.0275925
0.0284795
0.0294246
0.0304381
0.0315328
0.0327242
0.0340319
0.0354805
0.0371016
0.0389366
0.0410404
0.0434869
0.0463782
0.0498572
0.0541293
0.0594962
0.0663879
0.0756288
0.0881416
0.0177906
0.0185894
0.0193575
0.020071
0.0207796
0.0214938
0.0222132
0.0229406
0.0236812
0.0244408
0.0252253
0.0260412
0.0268959
0.027798
0.0287574
0.0297865
0.0309001
0.0321169
0.0334602
0.03496
0.0366554
0.0385984
0.0408594
0.0435359
0.0467652
0.0507452
0.0557683
0.0622552
0.070948
0.0827179
0.0156941
0.0166022
0.0174854
0.0182791
0.0190523
0.0198221
0.0205857
0.0213443
0.0221029
0.0228676
0.0236445
0.0244406
0.0252634
0.0261215
0.0270248
0.0279851
0.0290171
0.0301388
0.0313723
0.0327458
0.0342964
0.036073
0.0381417
0.0405942
0.0435603
0.0472283
0.0518762
0.0579103
0.0659831
0.0769277
0.0133016
0.014318
0.0154776
0.0164529
0.017331
0.0181728
0.0189895
0.0197856
0.0205683
0.0213459
0.0221262
0.0229174
0.0237281
0.0245673
0.0254451
0.0263735
0.0273671
0.0284434
0.0296236
0.0309339
0.0324086
0.0340932
0.0360475
0.0383542
0.0411292
0.0445438
0.0488441
0.0543802
0.0616394
0.0713583
0.00895188
0.00993457
0.0116957
0.0131055
0.0142979
0.0154136
0.0164844
0.0175187
0.0185261
0.0195162
0.0204973
0.0214778
0.0224666
0.0234729
0.0245064
0.0255785
0.0267033
0.0278983
0.0291839
0.0305834
0.032127
0.0338565
0.0358229
0.0380967
0.0407727
0.0439941
0.0479548
0.0528944
0.0590296
0.067041
0.0606457
0.0587097
0.0546009
0.0495701
0.0442824
0.0388347
0.0332217
0.0274787
0.0216648
0.0158414
0.0100669
0.00439603
-0.00112195
-0.00644395
-0.0115338
-0.0163621
-0.0209062
-0.0251487
-0.0290791
-0.0326917
-0.0359798
-0.0389339
-0.0415727
-0.0439023
-0.045932
-0.0476867
-0.0492129
-0.0504965
-0.0512101
-0.0507366
0.0490486
0.0488221
0.046313
0.0425557
0.0384742
0.0342443
0.0298329
0.0252442
0.0205194
0.0157098
0.0108694
0.00605343
0.00131682
-0.00328813
-0.00771378
-0.0119187
-0.015869
-0.0195386
-0.0229088
-0.0259678
-0.0287156
-0.0311643
-0.0333111
-0.0351689
-0.0367575
-0.0381158
-0.0392992
-0.0402264
-0.0403639
-0.0391572
0.0424429
0.0429538
0.0411999
0.038161
0.0348044
0.0313163
0.0276519
0.0238016
0.0197944
0.0156721
0.0114813
0.00727266
0.00309969
-0.000984159
-0.00492804
-0.00868621
-0.01222
-0.0154989
-0.0185016
-0.0212155
-0.0236369
-0.0257695
-0.0276227
-0.0292101
-0.0305517
-0.0316895
-0.0326837
-0.0334368
-0.0333384
-0.0317757
0.0379491
0.0388157
0.0375242
0.0349971
0.0321598
0.0291881
0.0260363
0.0226925
0.0191814
0.0155398
0.0118103
0.00804043
0.00428202
0.00058821
-0.00298929
-0.00640301
-0.00961205
-0.0125838
-0.0152951
-0.0177322
-0.0198905
-0.0217735
-0.0233908
-0.0247561
-0.0258893
-0.0268316
-0.0276435
-0.0282279
-0.0279672
-0.0262349
0.0346745
0.0356829
0.0346738
0.0325173
0.0300692
0.027486
0.0247226
0.0217667
0.0186399
0.0153754
0.0120119
0.00859456
0.00517312
0.00179971
-0.00147421
-0.00460076
-0.00753831
-0.0102534
-0.0127222
-0.0149303
-0.0168729
-0.0185535
-0.0199818
-0.0211714
-0.0221416
-0.0229318
-0.0236012
-0.0240597
-0.0237076
-0.0219051
0.0321954
0.0332369
0.0324093
0.0305317
0.0283847
0.0261028
0.0236422
0.0209918
0.0181709
0.0152093
0.0121432
0.00901514
0.00587285
0.00276704
-0.000251687
-0.00313586
-0.0058439
-0.00834229
-0.0106069
-0.0126233
-0.0143866
-0.0159002
-0.0171736
-0.0182203
-0.0190589
-0.0197263
-0.0202804
-0.0206419
-0.0202368
-0.0184117
0.0302433
0.0312701
0.0305613
0.0289003
0.0269934
0.0249533
0.0227373
0.0203357
0.0177658
0.015055
0.012237
0.00935197
0.00644594
0.00356804
0.000767719
-0.00190833
-0.00441903
-0.00673113
-0.00882066
-0.0106734
-0.0122843
-0.0136568
-0.0148005
-0.0157287
-0.0164592
-0.0170267
-0.0174881
-0.017775
-0.0173424
-0.0155203
0.028677
0.0296486
0.0290202
0.0275298
0.0258198
0.0239795
0.0219668
0.0197731
0.0174147
0.0149165
0.01231
0.00963359
0.00693141
0.00425105
0.00164069
-0.000853946
-0.0031925
-0.00534227
-0.00727966
-0.00899068
-0.0104705
-0.0117226
-0.0127565
-0.0135854
-0.0142266
-0.0147126
-0.0150991
-0.0153287
-0.0148853
-0.0130801
0.0273805
0.0282745
0.0277087
0.0263592
0.0248121
0.0231403
0.0213005
0.0192847
0.0171081
0.0147937
0.0123712
0.0098771
0.00735375
0.00484724
0.00240447
7.00648e-05
-0.00211647
-0.00412312
-0.00592678
-0.00751384
-0.00887974
-0.0100279
-0.0109679
-0.011713
-0.0122798
-0.0126991
-0.013025
-0.0132107
-0.0127681
-0.0109869
0.0262814
0.0270824
0.026563
0.0253431
0.0239326
0.0224047
0.0207149
0.0188545
0.0168374
0.014685
0.0124253
0.0100929
0.00772877
0.00537742
0.00308441
0.000893238
-0.00115754
-0.00303664
-0.00472158
-0.00619913
-0.00746502
-0.00852276
-0.00938197
-0.0100559
-0.0105605
-0.0109248
-0.0112016
-0.0113541
-0.0109199
-0.00916616
0.0253305
0.0260249
0.0255394
0.0244417
0.0231541
0.0217493
0.0201918
0.0184696
0.0165949
0.0145876
0.012474
0.0102874
0.008067
0.00585592
0.00369836
0.00163668
-0.000291553
-0.00205586
-0.00363437
-0.00501432
-0.00619169
-0.00717013
-0.00795926
-0.00857224
-0.00902463
-0.0093437
-0.00958056
-0.00970811
-0.00928796
-0.00756324
0.0244862
0.0250761
0.0246144
0.0236203
0.0224537
0.0211561
0.0197163
0.0181192
0.0163736
0.0144981
0.0125179
0.0104644
0.00837553
0.00629284
0.00425924
0.00231592
0.000499445
-0.00116052
-0.00264275
-0.00393493
-0.00503333
-0.0059417
-0.00666963
-0.00723022
-0.00763862
-0.00792039
-0.00812532
-0.00823448
-0.00783231
-0.00613732
0.0237208
0.024204
0.0237655
0.0228629
0.0218079
0.0206104
0.0192762
0.0177939
0.0161673
0.0144136
0.0125565
0.0106263
0.00865925
0.00669549
0.00477663
0.00294268
0.00122919
-0.000335008
-0.00172931
-0.00294188
-0.00396924
-0.00481523
-0.00548941
-0.00600472
-0.00637601
-0.00662726
-0.00680665
-0.00690287
-0.00652193
-0.0048573
0.0230148
0.0233872
0.0229738
0.0221559
0.0211984
0.0201019
0.0188615
0.0174854
0.0159705
0.0143307
0.012589
0.0107744
0.00892153
0.00706926
0.00525783
0.00352605
0.00190846
0.000433065
-0.000880187
-0.00201989
-0.00298282
-0.00377289
-0.00439957
-0.00487569
-0.00521575
-0.0054422
-0.00560152
-0.00568942
-0.00533221
-0.0036993
0.0223456
0.0226141
0.0222274
0.0214844
0.0206137
0.0196191
0.0184662
0.0171879
0.0157783
0.0142465
0.0126142
0.0109092
0.00916474
0.00741822
0.00570852
0.00407327
0.00254596
0.00115376
-8.40266e-05
-0.00115642
-0.00206042
-0.00279999
-0.0033845
-0.00382662
-0.0041405
-0.00434713
-0.00449133
-0.004575
-0.0042439
-0.00264514
0.0216961
0.0218711
0.021512
0.0208398
0.020049
0.019147
0.0180848
0.0168955
0.0155862
0.0141581
0.0126307
0.0110309
0.00939051
0.00774547
0.00613325
0.00459024
0.00314888
0.00183546
0.00066868
-0.000340928
-0.00119058
-0.00188423
-0.00243115
-0.00284381
-0.00313597
-0.00332734
-0.00346093
-0.00354404
-0.00324137
-0.00168102
0.0210562
0.0211454
0.020816
0.020213
0.019495
0.0186752
0.0177104
0.0166039
0.01539
0.0140625
0.0126369
0.0111392
0.00959997
0.00805344
0.00653572
0.00508189
0.00372331
0.00248537
0.00138611
0.000435652
-0.000363424
-0.00101508
-0.00152841
-0.00191568
-0.00219024
-0.00237061
-0.00249787
-0.00258401
-0.0023122
-0.000796886
0.0204185
0.0204257
0.0201269
0.0195919
0.0189447
0.0182015
0.0173327
0.0163095
0.0151861
0.0139569
0.0126313
0.0112338
0.00979385
0.00834407
0.00691904
0.00555248
0.00427458
0.00310981
0.00207549
0.00118133
0.000429704
-0.000183327
-0.000666667
-0.00103231
-0.00129326
-0.00146683
-0.00159207
-0.00168486
-0.00144659
1.41543e-05
0.0197757
0.0197021
0.0194361
0.018968
0.0183906
0.0177215
0.0169426
0.0160091
0.0149707
0.0138383
0.012612
0.011314
0.00997255
0.00861888
0.00728587
0.00600576
0.00480748
0.00371449
0.00274336
0.00190334
0.00119659
0.000619204
0.000162485
-0.000185244
-0.000436553
-0.000607659
-0.000735397
-0.000838706
-0.000636996
0.000756222
0.0191187
0.0189679
0.0187365
0.0183349
0.0178276
0.0172286
0.0165324
0.0156983
0.0147412
0.0137039
0.012577
0.0113787
0.0101362
0.00887912
0.00763855
0.00644514
0.00532644
0.00430475
0.00339584
0.00260841
0.0019444
0.00139992
0.000966538
0.000632947
0.00038706
0.000213794
7.86008e-05
-3.95792e-05
0.000122002
0.00143094
0.0184383
0.0182157
0.018021
0.0176851
0.0172474
0.016719
0.0161017
0.0153685
0.0144953
0.0135511
0.0125244
0.011427
0.0102848
0.00912577
0.00797918
0.00687384
0.00583568
0.00488574
0.0040388
0.00330295
0.00267984
0.00216564
0.00175219
0.00142864
0.00118351
0.00100283
0.000854656
0.000716674
0.000833819
0.00203773
0.017725
0.0174382
0.0172832
0.0170127
0.0166441
0.0161873
0.0156479
0.0150125
0.0142307
0.0133768
0.0124517
0.0114573
0.0104178
0.00935957
0.00830969
0.00729493
0.0063394
0.00546257
0.00467808
0.00399326
0.00340943
0.00292276
0.00252551
0.00220738
0.0019576
0.00176336
0.0015957
0.00143224
0.00149988
0.00257407
0.0169671
0.016628
0.0165158
0.0163116
0.016013
0.0156302
0.0151676
0.0146231
0.0139441
0.0131774
0.012356
0.0114681
0.0105347
0.0095811
0.00863193
0.00771156
0.0068419
0.00604055
0.00531972
0.00468578
0.0041396
0.00367745
0.00329205
0.00297386
0.00271297
0.00249804
0.0023031
0.00210742
0.00211943
0.00303592
0.0161486
0.0157754
0.0157112
0.0155753
0.0153482
0.0150412
0.0146562
0.0141981
0.0136301
0.0129516
0.0122349
0.0114573
0.0106347
0.00979079
0.00894769
0.00812688
0.00734759
0.00662508
0.00596975
0.00538676
0.00487643
0.00443513
0.00405633
0.00373143
0.0034517
0.00320758
0.00297645
0.0027408
0.00268957
0.00341814
0.0152487
0.0148675
0.0148579
0.0147943
0.0146424
0.0144135
0.0141087
0.0137373
0.0132805
0.0126979
0.012086
0.0114232
0.0107169
0.00998896
0.00925862
0.00854384
0.00786051
0.00722099
0.00663336
0.00610125
0.0056243
0.0051992
0.00482051
0.00448086
0.0041731
0.00388967
0.00361215
0.00332756
0.00320464
0.00371549
0.0142483
0.0139002
0.0139503
0.0139615
0.0138906
0.0137442
0.0135228
0.0132399
0.0128899
0.012412
0.011905
0.0113621
0.0107788
0.0101747
0.00956555
0.00896522
0.00838534
0.0078344
0.00731751
0.00683613
0.00638909
0.00597465
0.00558825
0.00522402
0.00487704
0.00454247
0.00420678
0.00386365
0.00365921
0.00392456
0.0131143
0.0129014
0.0130266
0.0131027
0.0131091
0.0130448
0.0129055
0.0127066
0.0124538
0.0120883
0.0116824
0.0112637
0.0108117
0.0103428
0.00986885
0.00939808
0.0089361
0.00848578
0.00804765
0.00761985
0.00719993
0.00679084
0.00638707
0.00598492
0.00558315
0.00518093
0.00477086
0.00435523
0.00405215
0.0040452
0.0116459
0.0118139
0.0121115
0.0122513
0.0123178
0.0123227
0.0122555
0.0121277
0.0119569
0.0117093
0.0114038
0.0111137
0.010806
0.0104921
0.0101777
0.00986285
0.00954398
0.00921547
0.00887087
0.00850445
0.00811349
0.00769831
0.00726065
0.00680001
0.00632012
0.00582583
0.00531733
0.00480511
0.00437275
0.00407088
0.00919128
0.00993437
0.010687
0.0110564
0.0112634
0.0113905
0.0114408
0.0114256
0.0113709
0.0112702
0.0111031
0.0109641
0.01082
0.0106742
0.0105252
0.0103638
0.0101767
0.00995183
0.00967722
0.00934815
0.00897743
0.00850124
0.00799727
0.00745455
0.00688022
0.00628474
0.00567553
0.0050685
0.0045085
0.00395602
0.00540275
0.00595348