/*--------------------------------*- C++ -*----------------------------------*\
  =========                 |
  \\      /  F ield         | OpenFOAM: The Open Source CFD Toolbox
   \\    /   O peration     | Website:  https://openfoam.org
    \\  /    A nd           | Version:  12
     \\/     M anipulation  |
\*---------------------------------------------------------------------------*/
FoamFile
{
    format      ascii;
    class       volScalarField;
    location    "380";
    object      pPrime2Mean;
}
// * * * * * * * * * * * * * * * * * * * * * * * * * * * * * * * * * * * * * //

dimensions      [0 4 -4 0 0 0 0];

internalField   nonuniform List<scalar> 
6750
(
0.00347523
0.00347021
0.00346389
0.00345829
0.0034518
0.00347589
0.00346884
0.00345778
0.00344468
0.00343089
0.0034916
0.00348287
0.00346855
0.00345023
0.00343055
0.00352165
0.00351234
0.00349693
0.0034769
0.00345543
0.00356415
0.00355562
0.00354145
0.00352282
0.00350287
0.00361606
0.00360949
0.00359848
0.00358371
0.00356782
0.00367354
0.00366982
0.00366342
0.00365432
0.00364442
0.00373253
0.00373225
0.00373138
0.00372915
0.0037266
0.00378925
0.00379264
0.00379773
0.00380293
0.00380841
0.0038405
0.00384751
0.00385847
0.00387106
0.00388461
0.00388388
0.00389419
0.00391051
0.00392988
0.00395092
0.00391784
0.00393092
0.00395174
0.00397685
0.00400428
0.00394163
0.00395682
0.00398104
0.00401053
0.00404288
0.00395524
0.00397179
0.00399821
0.00403054
0.00406613
0.00395921
0.00397638
0.00400378
0.0040374
0.00407448
0.00395446
0.00397153
0.00399879
0.00403226
0.00406917
0.00394097
0.00395724
0.00398325
0.00401509
0.00405015
0.00391792
0.00393264
0.00395618
0.00398487
0.00401634
0.0038849
0.00389737
0.00391725
0.00394128
0.00396751
0.00384208
0.00385166
0.00386684
0.00388489
0.00390447
0.00379035
0.00379653
0.00380622
0.00381732
0.00382921
0.00373137
0.00373389
0.00373763
0.00374125
0.00374497
0.00366767
0.0036665
0.00366426
0.00366043
0.0036561
0.00360252
0.00359793
0.00359018
0.00357952
0.00356789
0.00353976
0.00353235
0.00352005
0.00350379
0.00348625
0.0034835
0.00347417
0.00345878
0.00343875
0.00341726
0.00343759
0.00342754
0.00341099
0.00338964
0.00336677
0.00340511
0.00339567
0.00338028
0.00336073
0.00333976
0.00338792
0.00338022
0.00336819
0.00335393
0.00333895
0.00338666
0.00338112
0.00337401
0.0033675
0.00336022
0.00342821
0.00340253
0.00335343
0.00328355
0.00319414
0.00308618
0.00296001
0.00281596
0.00265542
0.00248057
0.00229328
0.00209828
0.00189974
0.00170247
0.00151133
0.00133068
0.00116401
0.00101373
0.000880969
0.000765619
0.000666578
0.000583734
0.000514353
0.000456619
0.000408881
0.000369555
0.000337326
0.000310953
0.000289557
0.000275804
0.00343301
0.0033903
0.00332708
0.00324541
0.00314609
0.00302976
0.0028972
0.00274958
0.00258883
0.00241712
0.00223593
0.00205017
0.00186296
0.00167822
0.00149976
0.00133093
0.00117442
0.00103212
0.000905029
0.000793456
0.000697197
0.000614122
0.000544
0.000485079
0.000435853
0.000395028
0.000361388
0.000333671
0.000310499
0.000292441
0.00342145
0.00336478
0.00329041
0.00320035
0.00309445
0.00297329
0.00283772
0.00268916
0.0025298
0.00236143
0.00218624
0.00200858
0.00183101
0.00165678
0.00148888
0.00132993
0.00118197
0.0010465
0.000924358
0.00081582
0.000720652
0.000638236
0.000567649
0.000507699
0.000457168
0.000414879
0.000379713
0.000350493
0.000326276
0.000307673
0.00340177
0.00333591
0.00325369
0.00315777
0.00304798
0.00292449
0.00278811
0.00264037
0.00248341
0.00231849
0.00214876
0.0019776
0.00180736
0.00164084
0.00148061
0.0013288
0.00118713
0.00105684
0.000938682
0.000832911
0.000739393
0.000657747
0.000587193
0.000526774
0.000475442
0.000432097
0.000395568
0.00036475
0.00033914
0.000321206
0.00337946
0.00330723
0.00321913
0.00311872
0.00300638
0.0028819
0.00274598
0.00260002
0.00244594
0.00228466
0.00211984
0.001954
0.00178945
0.00162873
0.00147415
0.00132763
0.00119073
0.00106456
0.000949796
0.000846683
0.000755102
0.000674657
0.000604689
0.00054435
0.000492678
0.000448622
0.000411009
0.00037865
0.000351768
0.000334438
0.00335804
0.00328101
0.00318854
0.0030847
0.00297048
0.0028458
0.00271096
0.00256723
0.00241607
0.0022584
0.00209778
0.00193622
0.00177601
0.00161956
0.00146906
0.00132639
0.00119307
0.00107015
0.000958264
0.000857619
0.000768047
0.000689096
0.000620099
0.000560226
0.000508542
0.000464052
0.000425574
0.000391978
0.000364055
0.000347393
0.00333967
0.00325893
0.00316304
0.0030567
0.00294115
0.0028166
0.00268314
0.00254171
0.0023932
0.00223882
0.00208165
0.0019234
0.00176636
0.00161289
0.00146518
0.00132517
0.0011944
0.00107395
0.000964435
0.000865992
0.000778373
0.00070103
0.000633213
0.000574043
0.000522584
0.000477882
0.000438793
0.000404264
0.000375535
0.000359613
0.00332611
0.00324247
0.00314383
0.00303548
0.00291915
0.00279479
0.00266271
0.00252338
0.00237707
0.00222551
0.00207093
0.00191503
0.00176008
0.00160844
0.00146241
0.00132401
0.0011949
0.00107622
0.000968555
0.000871996
0.000786186
0.000710449
0.00064391
0.000585603
0.000534579
0.000489828
0.000450355
0.000415208
0.000385886
0.000370667
0.00331899
0.00323299
0.00313192
0.00302181
0.00290488
0.00278076
0.00264987
0.00251221
0.00236764
0.00221817
0.00206531
0.00191078
0.00175688
0.00160603
0.00146066
0.00132295
0.0011947
0.0010771
0.000970783
0.000875754
0.000791546
0.000717338
0.000652108
0.000594785
0.000544373
0.000499821
0.000460208
0.000424619
0.000394858
0.000380212
0.00331988
0.0032318
0.00312838
0.00301649
0.00289889
0.00277504
0.00264492
0.00250829
0.00236495
0.00221671
0.00206463
0.00191049
0.0017566
0.00160554
0.00145987
0.00132199
0.00119383
0.00107669
0.000971205
0.000877326
0.000794472
0.000721667
0.000657741
0.000601498
0.000551823
0.000507715
0.000468173
0.000432297
0.000402206
0.000387948
0.00333039
0.00324029
0.00313431
0.00302036
0.00290178
0.00277794
0.00264818
0.00251188
0.00236913
0.00222116
0.00206888
0.0019141
0.0017592
0.00160691
0.00146002
0.00132113
0.00119233
0.00107502
0.000969854
0.000876729
0.000794952
0.000723401
0.000660745
0.000605648
0.000556876
0.000513392
0.000474069
0.000438037
0.000407702
0.000393625
0.00335231
0.00325995
0.00315099
0.00303443
0.00291441
0.00279011
0.00266009
0.00252342
0.00238044
0.00223173
0.00207819
0.00192168
0.00176469
0.00161015
0.0014611
0.00132037
0.00119019
0.00107209
0.000966721
0.000873947
0.000792961
0.000722498
0.000661069
0.000607174
0.000559423
0.000516718
0.000477711
0.000441633
0.000411151
0.000397053
0.00338768
0.00329256
0.00318001
0.00306014
0.00293809
0.00281241
0.00268129
0.00254352
0.00239929
0.00224873
0.00209279
0.00193338
0.00177316
0.00161531
0.00146313
0.00131968
0.00118739
0.00106785
0.000961767
0.00086894
0.000788459
0.000718915
0.000658654
0.000605989
0.00055933
0.000517429
0.0004789
0.000442915
0.000412404
0.000398113
0.00343898
0.00334028
0.0032233
0.00309912
0.00297404
0.00284604
0.00271282
0.00257299
0.00242632
0.00227267
0.00211304
0.00194945
0.00178478
0.00162247
0.00146614
0.00131908
0.00118388
0.00106226
0.000954926
0.000861651
0.000781399
0.000712613
0.000653447
0.000601989
0.000556493
0.000515465
0.000477511
0.00044178
0.000411401
0.000396785
0.00350919
0.00340583
0.00328332
0.00315357
0.00302429
0.00289271
0.00275607
0.00261295
0.00246241
0.00230422
0.00213944
0.00197023
0.00179974
0.00163176
0.00147018
0.00131855
0.00117963
0.00105524
0.000946118
0.000851999
0.000771717
0.000703528
0.000645369
0.000595112
0.00055079
0.000510717
0.000473486
0.000438217
0.000408191
0.000393194
0.00360207
0.00349274
0.00336338
0.00322655
0.00309152
0.00295471
0.00281312
0.00266501
0.0025088
0.00234429
0.00217261
0.00199613
0.00181832
0.00164332
0.00147531
0.00131808
0.00117458
0.00104671
0.000935267
0.000839897
0.000759313
0.000691546
0.0006343
0.000585237
0.000542131
0.000503144
0.000466854
0.000432342
0.000402987
0.000387692
0.00372255
0.00360569
0.00346796
0.00332212
0.00317938
0.00303525
0.00288674
0.00273126
0.00256708
0.00239403
0.00221333
0.00202766
0.00184083
0.00165731
0.00148158
0.00131765
0.00116866
0.00103662
0.000922301
0.000825266
0.000744071
0.000676532
0.000620102
0.000572215
0.00053047
0.000492805
0.000457795
0.000424482
0.000396281
0.00038097
0.00387729
0.00375105
0.00360308
0.00344564
0.0032926
0.00313855
0.00298019
0.00281434
0.00263927
0.00245485
0.00226258
0.00206545
0.00186764
0.00167391
0.00148902
0.00131721
0.0011618
0.00102487
0.000907126
0.000808008
0.000725892
0.000658389
0.000602716
0.000556069
0.000515873
0.000479935
0.000446744
0.000415318
0.000389027
0.000374288
0.00407544
0.0039373
0.00377661
0.00360417
0.00343737
0.00326984
0.00309765
0.00291753
0.00272781
0.00252855
0.00232156
0.00211025
0.00189912
0.00169324
0.00149763
0.00131673
0.00115395
0.00101138
0.000889638
0.000788017
0.000704705
0.000637109
0.00058223
0.000537018
0.000498742
0.000465134
0.000434634
0.000406188
0.000382963
0.000369811
0.00432963
0.00417602
0.00399915
0.00380696
0.00362167
0.00343551
0.00324437
0.00304489
0.00283571
0.00261722
0.00239165
0.00216284
0.00193565
0.00171544
0.00150742
0.00131615
0.00114504
0.000996083
0.000869775
0.000765252
0.000680536
0.000612856
0.000559006
0.000515721
0.0004801
0.000449801
0.000423335
0.000399616
0.000381243
0.000371288
0.00465751
0.00448341
0.00428535
0.0040667
0.0038559
0.00364412
0.00342701
0.00320152
0.00296665
0.00272334
0.00247439
0.00222408
0.00197765
0.00174065
0.0015184
0.00131543
0.001135
0.000978929
0.000847532
0.000739792
0.000653601
0.00058606
0.000533803
0.000493392
0.00046176
0.000436537
0.000416289
0.000400163
0.000389462
0.000385324
0.00508391
0.0048816
0.0046553
0.00440048
0.00415432
0.00390705
0.00365437
0.00339382
0.00312507
0.00284981
0.0025715
0.00229493
0.00202555
0.00176903
0.00153057
0.00131448
0.00112374
0.00095988
0.000822985
0.000711887
0.000624401
0.000557584
0.000508021
0.000472191
0.000446918
0.000429847
0.000419651
0.00041582
0.000417347
0.000423498
0.0056423
0.00540081
0.00513658
0.00483147
0.00453598
0.00423937
0.00393762
0.0036297
0.00331629
0.00300002
0.00268505
0.00237649
0.0020799
0.00180074
0.00154389
0.00131318
0.00111115
0.000938934
0.000796329
0.000682032
0.000593853
0.000528953
0.000484064
0.00045578
0.000440974
0.000437358
0.000443717
0.000460097
0.000480999
0.000504922
0.00637493
0.00608031
0.00576464
0.00539005
0.00502568
0.00465998
0.00429063
0.00391882
0.00354672
0.00317801
0.00281736
0.00247
0.0021412
0.00183588
0.00155821
0.00131132
0.00109708
0.000916108
0.000767899
0.000651045
0.000563476
0.000502681
0.000465875
0.000450156
0.000452782
0.000471588
0.00050539
0.000554545
0.00060536
0.000657838
0.00733093
0.00696589
0.00658291
0.00611402
0.00565404
0.00519166
0.00472974
0.00427239
0.00382367
0.00338824
0.00297097
0.00257667
0.00220982
0.00187431
0.00157318
0.00130847
0.00108116
0.000891271
0.000737995
0.000619942
0.000535386
0.000482495
0.000459475
0.000464546
0.000495898
0.00055166
0.000629869
0.00073011
0.000824831
0.000918844
0.00856087
0.00810438
0.0076342
0.00703938
0.00644823
0.00585506
0.00526971
0.00470058
0.00415387
0.00363494
0.00314827
0.00269761
0.00228602
0.00191572
0.00158808
0.00130366
0.00106235
0.000863489
0.000706113
0.000589123
0.00051155
0.000472792
0.00047272
0.000511439
0.000588691
0.000702815
0.000849792
0.00102537
0.00118077
0.00133125
0.0100918
0.00951681
0.00892955
0.00817331
0.00741472
0.00665764
0.0059193
0.00521312
0.00454727
0.00392737
0.00335712
0.00283882
0.00237365
0.00196179
0.00160263
0.00129506
0.00103779
0.000829589
0.000669575
0.000557374
0.000493331
0.000478668
0.000515431
0.000605957
0.00075161
0.000950454
0.001195
0.00147386
0.00171394
0.00193928
0.0120295
0.0112566
0.0104787
0.00953295
0.0085894
0.00765383
0.00674656
0.00588382
0.00507606
0.00433054
0.00365177
0.00304197
0.00250147
0.00202916
0.00162306
0.00128089
0.0010006
0.000780795
0.00062103
0.000521895
0.000484965
0.000512614
0.000607547
0.000771922
0.00100607
0.00130652
0.00166398
0.00206577
0.00244082
0.00280025
0.0150391
0.0140418
0.0130345
0.0118673
0.0106908
0.0095034
0.00833274
0.00720544
0.00614233
0.00515969
0.00426828
0.00347374
0.00277757
0.00217854
0.001674
0.00126114
0.000937988
0.000703878
0.000559797
0.000507984
0.000550898
0.000689913
0.000924382
0.00124946
0.00165536
0.00212602
0.002641
0.00318746
0.00366562
0.00413901
0.0244279
0.0226394
0.0206087
0.018544
0.0164849
0.0144314
0.0124292
0.0105225
0.0087473
0.00713173
0.00569385
0.00444155
0.00337498
0.00248971
0.00177982
0.00124076
0.000871225
0.000674196
0.000656155
0.000825506
0.00119017
0.00175429
0.00251422
0.00345686
0.00455881
0.0057865
0.00709812
0.00848276
0.00990243
0.0111836
0.00343761
0.00341945
0.00340403
0.00338926
0.00337598
0.00336518
0.0033581
0.00335607
0.0033605
0.00337289
0.00339486
0.00342826
0.00347525
0.00353844
0.00362101
0.00372697
0.00386152
0.00403175
0.00424754
0.00452279
0.00487722
0.00533863
0.00594459
0.0067413
0.0077816
0.00912291
0.010827
0.0130787
0.0164907
0.0264264
0.00341766
0.00340432
0.00339299
0.00338361
0.00337764
0.00337574
0.00337872
0.00338758
0.0034035
0.0034279
0.00346243
0.00350909
0.00357026
0.00364884
0.00374843
0.00387356
0.0040302
0.00422639
0.00447318
0.00478599
0.00518642
0.00570456
0.00638052
0.00726317
0.00840768
0.00988081
0.0117902
0.0143582
0.0180669
0.0285743
0.00341892
0.00341564
0.00341386
0.00341373
0.00341688
0.00342423
0.00343684
0.00345589
0.0034827
0.00351877
0.00356586
0.00362608
0.00370198
0.0037967
0.00391414
0.00405932
0.00423889
0.00446175
0.00474009
0.00509068
0.00553681
0.00611065
0.00685457
0.00781927
0.00906127
0.0106562
0.0127532
0.0156097
0.0195274
0.0309569
0.00344759
0.0034545
0.00346274
0.0034725
0.0034856
0.00350316
0.00352639
0.00355657
0.00359516
0.00364381
0.00370442
0.00377926
0.00387109
0.00398324
0.00411997
0.00428672
0.00449067
0.00474145
0.00505197
0.00543982
0.0059291
0.00655269
0.00735319
0.00837993
0.00968661
0.0113564
0.013594
0.0167459
0.0208085
0.0335159
0.00349988
0.00351606
0.00353396
0.00355356
0.00357682
0.00360506
0.00363961
0.00368186
0.00373336
0.00379586
0.00387142
0.00396247
0.00407195
0.00420349
0.00436162
0.00455223
0.00478302
0.00506418
0.00540916
0.00583596
0.00636894
0.00704077
0.00789283
0.00897095
0.0103235
0.01204
0.0143932
0.0178689
0.0219691
0.0362229
0.00357036
0.00359472
0.00362159
0.00365079
0.00368423
0.00372334
0.00376959
0.00382448
0.00388964
0.00396692
0.00405852
0.00416699
0.00429548
0.00444782
0.00462884
0.00484479
0.00510379
0.00541641
0.00579638
0.00626173
0.00683642
0.00755203
0.0084475
0.00956333
0.0109406
0.0126756
0.0151249
0.0189921
0.0230167
0.0391787
0.00365299
0.00368447
0.00371951
0.00375786
0.00380127
0.00385122
0.00390927
0.00397698
0.00405612
0.00414862
0.00425678
0.00438329
0.00453141
0.00470518
0.00490967
0.0051514
0.00543877
0.00578253
0.00619643
0.00669816
0.00731083
0.00806433
0.00899424
0.0101343
0.0115168
0.0132439
0.0157722
0.0201391
0.0239803
0.0425254
0.0037415
0.00377912
0.00382146
0.00386832
0.00392126
0.00398174
0.00405133
0.00413168
0.00422462
0.00433218
0.00445676
0.00460114
0.00476867
0.00496355
0.00519102
0.0054578
0.00577239
0.00614554
0.00659082
0.00712539
0.00777124
0.00855629
0.00951235
0.0106653
0.0120367
0.0137334
0.0163222
0.0213321
0.0248995
0.0464155
0.00382971
0.00387259
0.00392134
0.00397592
0.0040377
0.00410807
0.0041886
0.00428097
0.00438704
0.00450893
0.00464908
0.00481037
0.00499623
0.00521093
0.00545986
0.00574979
0.00608922
0.00648879
0.00696176
0.00752467
0.00819839
0.00900896
0.00998445
0.011142
0.0124903
0.0141389
0.016765
0.0225867
0.0258228
0.0509718
0.00391205
0.00395936
0.00401364
0.00407502
0.00414472
0.00422406
0.00431455
0.00441788
0.00453592
0.00467082
0.00482508
0.0050016
0.00520392
0.00543634
0.00570428
0.00601451
0.00637544
0.00679755
0.00729376
0.00788003
0.00857627
0.00940702
0.010397
0.0115539
0.0128717
0.0144611
0.0170973
0.023906
0.0268003
0.0562277
0.00398392
0.00403489
0.00409378
0.00416094
0.00423744
0.00432454
0.00442368
0.00453651
0.00466491
0.00481104
0.0049774
0.00516694
0.00538324
0.00563063
0.00591448
0.00624151
0.00662004
0.00706034
0.00757506
0.00817963
0.00889327
0.00973957
0.0107407
0.0118947
0.0131787
0.0147051
0.0173233
0.0252728
0.0278674
0.0620554
0.00404196
0.00409583
0.0041584
0.00423022
0.00431226
0.00440567
0.00451187
0.00463244
0.00476924
0.00492444
0.00510054
0.00530053
0.00552796
0.00578717
0.00608348
0.00642353
0.00681553
0.00726963
0.00779818
0.00841624
0.00914258
0.0100004
0.0110102
0.0121609
0.0134118
0.0148783
0.0174555
0.0266411
0.0290234
0.0680947
0.00408415
0.00414014
0.00420545
0.00428076
0.00436695
0.00446511
0.00457657
0.0047029
0.00484595
0.00500787
0.00519118
0.00539885
0.00563441
0.00590217
0.00620741
0.00655672
0.00695823
0.00742195
0.00796001
0.0085872
0.00932204
0.0101878
0.0112041
0.0123522
0.0135734
0.0149891
0.0175122
0.0279329
0.0302124
0.0737719
0.00410975
0.00416712
0.00423423
0.00431183
0.00440073
0.00450197
0.00461685
0.00474691
0.004894
0.00506027
0.00524821
0.00546079
0.0057015
0.00597464
0.00628547
0.00664053
0.0070479
0.00751749
0.00806129
0.00869388
0.00943368
0.0103042
0.0113251
0.0124714
0.0136691
0.015047
0.0175147
0.0290177
0.0312939
0.0783764
0.00411921
0.00417725
0.00424523
0.00432394
0.00441414
0.00451685
0.00463333
0.00476516
0.00491415
0.00508247
0.00527259
0.00548744
0.00573052
0.00600612
0.00631952
0.00667723
0.00708733
0.00755965
0.00810609
0.00874116
0.00948325
0.0103561
0.0113797
0.0125256
0.0137106
0.0150683
0.0174938
0.0296412
0.0319764
0.0809999
0.00411381
0.00417187
0.00423988
0.0043186
0.0044088
0.00451148
0.00462793
0.0047597
0.00490864
0.00507687
0.00526688
0.0054816
0.00572453
0.00599998
0.00631327
0.00667093
0.00708104
0.00755344
0.00810003
0.00873531
0.00947773
0.010351
0.0113752
0.0125218
0.0137072
0.0150655
0.0174878
0.0296299
0.0319683
0.0811003
0.00409352
0.00415097
0.00421817
0.00429584
0.00438474
0.00448594
0.00460072
0.00473066
0.00487758
0.00504362
0.00523126
0.00544345
0.00568374
0.00595647
0.006267
0.00662192
0.00702935
0.0074992
0.00804345
0.00867672
0.00941754
0.0102895
0.0113122
0.0124602
0.0136593
0.0150389
0.0174977
0.0289876
0.0312726
0.0786644
0.00405719
0.00411333
0.00417881
0.00425429
0.00434057
0.00443874
0.00455013
0.00467631
0.00481913
0.00498072
0.00516358
0.00537067
0.00560561
0.00587277
0.00617758
0.0065267
0.00692834
0.00739252
0.0079314
0.0085598
0.00929638
0.0101645
0.0111837
0.0123344
0.013558
0.0149765
0.0174878
0.0278941
0.0301856
0.0742105
0.00400463
0.00405871
0.00412157
0.0041937
0.00427598
0.00436954
0.00447576
0.00459623
0.00473281
0.00488762
0.00506319
0.00526251
0.00548919
0.0057477
0.0060435
0.00638334
0.00677557
0.00723036
0.0077601
0.00837992
0.00910871
0.00996965
0.010983
0.0121371
0.0133917
0.0148624
0.0174291
0.0266056
0.0289994
0.0686419
0.0039368
0.00398809
0.00404738
0.00411501
0.00419195
0.00427937
0.0043787
0.00449157
0.00461982
0.00476559
0.00493141
0.00512025
0.00533576
0.00558242
0.00586575
0.00619261
0.00657145
0.00701266
0.00752892
0.00813573
0.00885237
0.00970233
0.0107074
0.0118654
0.0131546
0.0146874
0.0173008
0.0252509
0.0278529
0.0626739
0.00385595
0.00390369
0.00395852
0.00402055
0.00409088
0.00417077
0.00426166
0.00436521
0.00448325
0.00461792
0.00477171
0.00494758
0.00514915
0.00538089
0.00564836
0.00595847
0.00631981
0.00674297
0.00724097
0.00782979
0.00852932
0.0093639
0.0103579
0.0115193
0.0128442
0.0144437
0.0170846
0.023905
0.0268007
0.056885
0.0037656
0.00380907
0.00385855
0.00391399
0.00397661
0.00404776
0.00412892
0.00422174
0.00432804
0.0044499
0.00458975
0.00475052
0.00493575
0.00514986
0.00539839
0.00568827
0.00602818
0.00642886
0.00690369
0.00746921
0.00814618
0.00896038
0.00993974
0.0111024
0.0124603
0.0141239
0.0167669
0.0226103
0.0258426
0.0516429
0.00367044
0.00370889
0.00375219
0.00380014
0.00385416
0.00391565
0.00398612
0.00406719
0.00416063
0.00426844
0.00439297
0.00453706
0.00470414
0.00489852
0.00512565
0.0053924
0.00570746
0.00608171
0.00652873
0.0070657
0.00771442
0.0085026
0.00946225
0.0106212
0.0120052
0.0137232
0.0163417
0.0213807
0.0249427
0.0470842
0.00357608
0.00360869
0.00364498
0.0036847
0.00372944
0.00378065
0.00383984
0.00390855
0.00398848
0.00408155
0.00418998
0.00431648
0.00446433
0.00463769
0.00484182
0.00508348
0.00537123
0.00571591
0.0061313
0.006635
0.00724994
0.00800591
0.00893917
0.0100863
0.0114849
0.0132404
0.0158102
0.0202112
0.0240507
0.0431839
0.00348864
0.00351449
0.00354295
0.0035738
0.00360882
0.00364943
0.00369707
0.00375321
0.00381946
0.00389761
0.00398978
0.00409849
0.00422687
0.00437884
0.00455945
0.0047752
0.0050344
0.00534772
0.00572883
0.00619562
0.0067719
0.00748937
0.00838816
0.00951246
0.0109098
0.0126803
0.0151805
0.0190853
0.0231188
0.0398275
0.00341438
0.00343242
0.00345222
0.00347373
0.00349878
0.00352869
0.0035648
0.00360847
0.00366124
0.00372479
0.00380111
0.00389255
0.004002
0.00413318
0.00429083
0.00448109
0.00471192
0.00499354
0.00533932
0.0057671
0.00630114
0.0069745
0.00783024
0.00891856
0.0102949
0.0120536
0.0144648
0.0179813
0.0221074
0.0368689
0.00335929
0.00336841
0.00337881
0.00339062
0.00340558
0.00342483
0.0034496
0.00348119
0.00352102
0.0035707
0.00363206
0.00370728
0.00379905
0.00391082
0.004047
0.00421333
0.00441722
0.00466835
0.00497948
0.00536804
0.00585824
0.00648357
0.0072887
0.00832781
0.00966195
0.011379
0.0136795
0.0168766
0.0209878
0.0341703
0.00332873
0.00332798
0.00332852
0.00333042
0.00333526
0.00334406
0.00335793
0.00337808
0.0034058
0.00344258
0.00349013
0.00355052
0.00362625
0.00372052
0.00383742
0.00398222
0.00416177
0.00438503
0.00466404
0.00501551
0.00546303
0.00603963
0.00679002
0.00776982
0.00904252
0.0106883
0.0128509
0.0157588
0.0197519
0.0316317
0.00332646
0.00331592
0.00330687
0.00329921
0.00329447
0.00329346
0.00329708
0.00330638
0.00332255
0.00334703
0.00338147
0.00342786
0.00348863
0.00356674
0.00366593
0.0037909
0.00394776
0.00414464
0.00439255
0.004707
0.00511004
0.00563275
0.00631757
0.00721801
0.00839508
0.00991938
0.0118942
0.0145198
0.0183268
0.0292665
0.00334718
0.0033315
0.00331755
0.00330367
0.00329083
0.0032801
0.00327277
0.00327024
0.00327398
0.00328558
0.00330669
0.00333925
0.0033855
0.00344815
0.00353048
0.00363657
0.00377168
0.00394299
0.0041606
0.00443866
0.00479728
0.00526528
0.00588231
0.00669885
0.00777192
0.00916235
0.01093
0.013246
0.0167731
0.0271314
0.0251249
0.0233054
0.0212149
0.0190739
0.0169356
0.0148068
0.0127363
0.0107699
0.00894453
0.0072882
0.00581845
0.00454234
0.00345903
0.00256308
0.00184777
0.00130788
0.000941621
0.000751749
0.000744576
0.000928298
0.00131052
0.00189473
0.00267611
0.00363982
0.00476015
0.00600092
0.00731796
0.00869915
0.0101053
0.011371
0.0153342
0.0143446
0.0133254
0.0121259
0.0109113
0.0096869
0.00848311
0.00732808
0.006243
0.00524373
0.00434028
0.00353742
0.00283586
0.00223368
0.00172769
0.00131463
0.000992107
0.000759028
0.000616
0.000564944
0.000608027
0.00074638
0.000979149
0.0013013
0.00170286
0.00216746
0.00267479
0.00321283
0.00367728
0.00414393
0.0122045
0.0114445
0.0106682
0.00970966
0.00874609
0.00778877
0.00686069
0.00597978
0.00515724
0.00440035
0.00371328
0.00309769
0.00255332
0.00207857
0.00167096
0.00132777
0.00104647
0.000825096
0.000662631
0.000559084
0.000515569
0.000534212
0.000617767
0.000768763
0.000988208
0.00127352
0.00161671
0.00200679
0.002371
0.00272738
0.0101957
0.009628
0.00904178
0.00827772
0.00750825
0.00674027
0.00599205
0.00527758
0.00460517
0.00398034
0.00340658
0.00288593
0.00241931
0.00200664
0.00164705
0.00133915
0.00108124
0.000871609
0.000708815
0.000591952
0.000521038
0.00049735
0.000523461
0.000602603
0.000737132
0.000925913
0.00116194
0.00143419
0.00167084
0.00189629
0.00860088
0.0081473
0.00767602
0.00707721
0.00648311
0.00588887
0.00530372
0.00473546
0.0041898
0.00367185
0.00318602
0.00273609
0.00232514
0.00195542
0.00162825
0.00134405
0.0011024
0.000902279
0.000742249
0.000620819
0.000536877
0.000490113
0.000481174
0.000511282
0.000581249
0.000690049
0.000833604
0.00100696
0.00116194
0.00131229
0.007323
0.00695897
0.00657462
0.00610505
0.0056473
0.00519025
0.00473505
0.00428463
0.00384216
0.00341188
0.00299858
0.00260721
0.00224248
0.00190848
0.00160833
0.001344
0.0011163
0.00092496
0.000768896
0.000646526
0.000556188
0.000496475
0.00046635
0.000464963
0.000491305
0.000543922
0.000620728
0.000720608
0.000815953
0.000910132
0.00633466
0.00604119
0.00572529
0.00535268
0.0049934
0.0046358
0.00427612
0.00391427
0.00355134
0.00319036
0.00283581
0.00249299
0.00216745
0.00186437
0.00158806
0.00134166
0.00112692
0.000944323
0.000793258
0.000672347
0.00057976
0.000513452
0.00047125
0.00045086
0.000449984
0.00046666
0.000499644
0.000549
0.000601092
0.000654909
0.00558162
0.00534213
0.00507912
0.00477758
0.0044883
0.00420062
0.00390937
0.00361248
0.00330957
0.00300248
0.00269499
0.00239218
0.00209982
0.0018236
0.00156855
0.00133855
0.00113609
0.000962269
0.000816954
0.000699041
0.000606695
0.000537527
0.000488719
0.000457204
0.000440017
0.000434896
0.000440577
0.000457051
0.000479132
0.00050471
0.00501088
0.00481094
0.00458679
0.00433622
0.00409656
0.00385818
0.00361594
0.00336656
0.00310876
0.00284342
0.00257351
0.0023036
0.0020393
0.00178641
0.0015503
0.0013353
0.0011444
0.000979187
0.000839922
0.000725761
0.000634933
0.000564915
0.000512618
0.000474682
0.000447919
0.000429854
0.00041907
0.000415031
0.000417108
0.000424337
0.00457645
0.00440462
0.00420911
0.00399521
0.00379076
0.0035875
0.00338043
0.00316586
0.00294199
0.00270896
0.002469
0.00222609
0.00198545
0.00175278
0.00153349
0.00133211
0.00115196
0.000994945
0.000861647
0.000751437
0.000662651
0.000592786
0.00053872
0.000497074
0.000464659
0.000438898
0.000418182
0.000401558
0.000390708
0.000386815
0.00424304
0.00409135
0.00391711
0.00372958
0.00355052
0.00337249
0.00319092
0.003002
0.00280368
0.00259561
0.00237942
0.00215858
0.00193783
0.00172259
0.00151813
0.00132903
0.00115871
0.00100931
0.000881632
0.000775232
0.000688588
0.000619306
0.000564373
0.000520525
0.000484678
0.000454213
0.000427382
0.000402977
0.000383906
0.000373489
0.00398484
0.00384812
0.00368998
0.00352202
0.00336132
0.00320147
0.00303844
0.00286847
0.00268934
0.00250045
0.00230304
0.00210012
0.001896
0.00169569
0.00150422
0.00132602
0.00116457
0.00102208
0.000899523
0.000796607
0.00071197
0.000643379
0.000588004
0.000542756
0.000504684
0.000471206
0.000440425
0.000411191
0.000386904
0.000372783
0.0037838
0.00365831
0.00351266
0.00335948
0.00321227
0.00306577
0.0029162
0.00276012
0.00259528
0.00242102
0.00223834
0.0020499
0.00185958
0.00167196
0.00149172
0.0013231
0.00116949
0.00103315
0.000915127
0.000815273
0.000732385
0.000664413
0.000608731
0.000562456
0.000522776
0.000487155
0.000453792
0.000421563
0.000394028
0.000378018
0.00362713
0.0035103
0.00337458
0.00323282
0.00309573
0.0029589
0.00281895
0.00267283
0.00251845
0.0023552
0.002184
0.00200718
0.00182822
0.00165125
0.0014806
0.00132026
0.00117348
0.00104249
0.000928392
0.000831141
0.000749686
0.00068215
0.0006261
0.000578881
0.000537847
0.000500645
0.000465577
0.000431538
0.000402091
0.000385403
0.00350552
0.00339562
0.00326804
0.00313514
0.00300557
0.00287571
0.00274237
0.00260317
0.00245627
0.00230122
0.00213888
0.00197131
0.00180159
0.00163345
0.00147085
0.00131753
0.00117658
0.00105016
0.00093938
0.000844271
0.000763903
0.000696552
0.000639991
0.000591787
0.000549504
0.000511072
0.000474847
0.000439785
0.000409364
0.000392783
0.00341221
0.00330797
0.00318707
0.00306106
0.00293697
0.0028119
0.00268294
0.00254829
0.00240664
0.00225761
0.00210202
0.00194169
0.00177937
0.00161841
0.00146246
0.00131499
0.00117891
0.00105629
0.000948231
0.0008548
0.000775159
0.000707735
0.000650486
0.000601203
0.00055775
0.000518293
0.000481268
0.000445702
0.000414928
0.000398916
0.00334221
0.00324249
0.00312697
0.00300624
0.00288597
0.00276394
0.00263781
0.00250597
0.00236785
0.00222314
0.00207256
0.00191777
0.00176123
0.00160599
0.0014554
0.00131268
0.00118057
0.00106104
0.000955112
0.000862896
0.000783631
0.000715878
0.000657786
0.000607377
0.000562796
0.000522447
0.000484853
0.000449108
0.000418353
0.000403072
0.00329159
0.00319541
0.00308409
0.00296726
0.00284953
0.00272928
0.00260478
0.00247455
0.00233861
0.0021968
0.00204977
0.00189904
0.00174686
0.00159603
0.00144964
0.00131068
0.00118169
0.00106453
0.000960181
0.000868734
0.000789502
0.000721188
0.000662139
0.000610605
0.00056493
0.000523784
0.000485761
0.000450013
0.000419462
0.000404839
0.00325722
0.00316371
0.00305565
0.00294161
0.00282543
0.00270605
0.00258226
0.00245281
0.00231791
0.0021778
0.00203303
0.00188505
0.00173597
0.00158839
0.00144515
0.00130902
0.00118236
0.00106691
0.000963577
0.000872461
0.000792938
0.000723853
0.000663746
0.000611075
0.00056439
0.00052253
0.000484146
0.00044849
0.000418218
0.000404051
0.00323645
0.00314498
0.00303951
0.00292753
0.00281218
0.00269298
0.00256915
0.00243985
0.002305
0.00216548
0.00202183
0.00187545
0.00172835
0.00158295
0.00144189
0.00130773
0.00118265
0.00106825
0.000965399
0.000874187
0.000794064
0.000724013
0.000662764
0.000608966
0.000561331
0.000518756
0.000480148
0.00044465
0.000414686
0.000400724
0.00322714
0.00313737
0.00303402
0.00292363
0.00280873
0.00268924
0.00256476
0.00243492
0.00229933
0.00215941
0.00201583
0.00186997
0.0017238
0.00157961
0.00143983
0.00130682
0.00118259
0.00106862
0.000965715
0.000873982
0.000792955
0.000721756
0.000659285
0.000604365
0.000555866
0.000512719
0.000473946
0.000438659
0.000409019
0.000394989
0.00322743
0.00313936
0.00303794
0.00292891
0.00281433
0.00269419
0.00256859
0.00243751
0.00230052
0.00215924
0.00201477
0.00186845
0.00172224
0.00157831
0.00143894
0.00130628
0.00118219
0.00106803
0.000964546
0.000871876
0.000789648
0.000717125
0.000653367
0.000597348
0.000548089
0.000504504
0.000465681
0.000430702
0.000401424
0.000387073
0.00323561
0.00314957
0.00305014
0.00294247
0.00282821
0.00270741
0.00258026
0.00244727
0.00230834
0.00216481
0.00201856
0.00187085
0.00172365
0.00157906
0.00143921
0.00130609
0.00118142
0.00106645
0.000961871
0.000867862
0.00078415
0.000710144
0.000645055
0.000587993
0.000538037
0.000494216
0.000455538
0.000420975
0.000392143
0.00037725
0.00325001
0.00316661
0.00306959
0.00296353
0.00284975
0.0027283
0.00259942
0.00246399
0.00232262
0.00217613
0.00202723
0.00187725
0.00172811
0.00158191
0.00144066
0.00130624
0.00118023
0.0010638
0.000957612