/*--------------------------------*- C++ -*----------------------------------*\
  =========                 |
  \\      /  F ield         | OpenFOAM: The Open Source CFD Toolbox
   \\    /   O peration     | Website:  https://openfoam.org
    \\  /    A nd           | Version:  12
     \\/     M anipulation  |
\*---------------------------------------------------------------------------*/
FoamFile
{
    format      ascii;
    class       volVectorField;
    location    "380";
    object      U;
}
// * * * * * * * * * * * * * * * * * * * * * * * * * * * * * * * * * * * * * //

dimensions      [0 1 -1 0 0 0 0];

internalField   nonuniform List<vector> 
6750
(
(0.200065 -0.00312057 0)
(0.200334 -0.00958859 0)
(0.200601 -0.0155816 0)
(0.200832 -0.0211569 0)
(0.200689 -0.0263972 0)
(0.200037 -0.00347818 0)
(0.200271 -0.0101448 0)
(0.200458 -0.0160525 0)
(0.200516 -0.0213268 0)
(0.200374 -0.0260404 0)
(0.200026 -0.0036373 0)
(0.200122 -0.0103568 0)
(0.200123 -0.0161213 0)
(0.19998 -0.0210921 0)
(0.19971 -0.0253524 0)
(0.20001 -0.00366804 0)
(0.199953 -0.0102922 0)
(0.199761 -0.0158486 0)
(0.199437 -0.0205371 0)
(0.199037 -0.0244794 0)
(0.199996 -0.0035978 0)
(0.199798 -0.00999869 0)
(0.199422 -0.0152923 0)
(0.198921 -0.0197076 0)
(0.198376 -0.0233927 0)
(0.199984 -0.00344429 0)
(0.199656 -0.0095113 0)
(0.199104 -0.0144866 0)
(0.198422 -0.0186128 0)
(0.197713 -0.0220485 0)
(0.199974 -0.003222 0)
(0.199524 -0.00885765 0)
(0.198799 -0.0134566 0)
(0.197931 -0.0172614 0)
(0.197044 -0.02043 0)
(0.199965 -0.00294198 0)
(0.199398 -0.00806049 0)
(0.198505 -0.0122255 0)
(0.197451 -0.0156695 0)
(0.196378 -0.0185415 0)
(0.199956 -0.00261382 0)
(0.199281 -0.00714228 0)
(0.198228 -0.0108213 0)
(0.196995 -0.0138647 0)
(0.195739 -0.0164073 0)
(0.199949 -0.00224725 0)
(0.199175 -0.00612755 0)
(0.197976 -0.0092775 0)
(0.196579 -0.0118854 0)
(0.195152 -0.0140686 0)
(0.199943 -0.00185259 0)
(0.199084 -0.00504301 0)
(0.197758 -0.00763246 0)
(0.196219 -0.00977834 0)
(0.194641 -0.011578 0)
(0.199938 -0.00144045 0)
(0.199011 -0.00391628 0)
(0.197583 -0.00592665 0)
(0.195927 -0.00759386 0)
(0.194226 -0.00899403 0)
(0.199935 -0.00102116 0)
(0.198957 -0.00277423 0)
(0.197453 -0.00419978 0)
(0.195712 -0.00538192 0)
(0.193918 -0.00637554 0)
(0.199931 -0.000603923 0)
(0.198926 -0.00164156 0)
(0.197371 -0.00248786 0)
(0.195574 -0.00318811 0)
(0.19372 -0.00377685 0)
(0.199921 -0.000200459 0)
(0.198921 -0.000537798 0)
(0.197334 -0.000819506 0)
(0.19551 -0.00105046 0)
(0.193626 -0.00124443 0)
(0.199921 0.000200383 0)
(0.198921 0.000537568 0)
(0.197334 0.000819135 0)
(0.19551 0.00104997 0)
(0.193626 0.00124383 0)
(0.199931 0.000603847 0)
(0.198926 0.00164133 0)
(0.197371 0.00248749 0)
(0.195574 0.00318762 0)
(0.19372 0.00377625 0)
(0.199935 0.00102109 0)
(0.198957 0.002774 0)
(0.197453 0.00419941 0)
(0.195712 0.00538143 0)
(0.193918 0.00637494 0)
(0.199938 0.00144038 0)
(0.199011 0.00391605 0)
(0.197583 0.00592628 0)
(0.195927 0.00759337 0)
(0.194226 0.00899344 0)
(0.199943 0.00185251 0)
(0.199084 0.00504278 0)
(0.197758 0.00763209 0)
(0.196219 0.00977785 0)
(0.194641 0.0115774 0)
(0.199949 0.00224718 0)
(0.199175 0.00612732 0)
(0.197976 0.00927714 0)
(0.196579 0.0118849 0)
(0.195152 0.014068 0)
(0.199956 0.00261375 0)
(0.199281 0.00714205 0)
(0.198228 0.0108209 0)
(0.196995 0.0138642 0)
(0.195739 0.0164067 0)
(0.199965 0.00294191 0)
(0.199398 0.00806027 0)
(0.198505 0.0122252 0)
(0.197451 0.0156691 0)
(0.196378 0.0185409 0)
(0.199974 0.00322192 0)
(0.199524 0.00885743 0)
(0.198799 0.0134562 0)
(0.197931 0.017261 0)
(0.197044 0.0204294 0)
(0.199984 0.00344421 0)
(0.199656 0.00951108 0)
(0.199104 0.0144863 0)
(0.198422 0.0186123 0)
(0.197713 0.022048 0)
(0.199996 0.00359773 0)
(0.199798 0.00999846 0)
(0.199422 0.0152919 0)
(0.198921 0.0197071 0)
(0.198376 0.0233921 0)
(0.20001 0.00366797 0)
(0.199953 0.010292 0)
(0.199761 0.0158482 0)
(0.199437 0.0205366 0)
(0.199037 0.0244788 0)
(0.200026 0.00363722 0)
(0.200122 0.0103566 0)
(0.200123 0.0161209 0)
(0.19998 0.0210916 0)
(0.19971 0.0253518 0)
(0.200037 0.00347811 0)
(0.200271 0.0101446 0)
(0.200458 0.0160521 0)
(0.200516 0.0213263 0)
(0.200374 0.0260398 0)
(0.200065 0.00312051 0)
(0.200334 0.00958838 0)
(0.200601 0.0155812 0)
(0.200832 0.0211564 0)
(0.200689 0.0263965 0)
(0.19851 -0.0381713 0)
(0.196771 -0.0437666 0)
(0.19529 -0.0488916 0)
(0.194259 -0.0534927 2.81844e-22)
(0.193531 -0.0574584 0)
(0.193048 -0.0607276 0)
(0.192799 -0.0632341 -1.92941e-20)
(0.192771 -0.0648823 1.94643e-20)
(0.192944 -0.0655552 1.58023e-22)
(0.193246 -0.065198 1.01189e-20)
(0.19365 -0.0636829 1.92651e-23)
(0.194077 -0.0608567 -1.25405e-23)
(0.194448 -0.0567895 -5.21058e-21)
(0.194679 -0.0515506 -5.17108e-21)
(0.194696 -0.0452833 -1.20749e-20)
(0.194444 -0.038198 1.20792e-20)
(0.193893 -0.0305539 -4.84799e-21)
(0.193043 -0.022632 -4.49961e-21)
(0.191923 -0.0147136 3.11567e-22)
(0.190583 -0.00705425 3.53662e-22)
(0.189074 0.000135737 8.64161e-21)
(0.187472 0.00674163 -1.27347e-22)
(0.185861 0.0126397 1.47951e-20)
(0.184299 0.0177731 -1.46643e-20)
(0.182838 0.0221311 0)
(0.181518 0.0257346 0)
(0.18037 0.0286247 -1.86298e-22)
(0.179419 0.030854 0)
(0.178685 0.0324775 0)
(0.178159 0.0335209 0)
(0.197622 -0.0415328 0)
(0.196045 -0.047038 0)
(0.194851 -0.05173 0)
(0.194008 -0.0558203 -2.66383e-22)
(0.193399 -0.0592951 0)
(0.19301 -0.0621143 0)
(0.19284 -0.0642066 1.92107e-20)
(0.192874 -0.0654749 -1.96725e-20)
(0.19309 -0.0658105 -1.48735e-22)
(0.193415 -0.0651815 0)
(0.193825 -0.0634226 0)
(0.194232 -0.0604518 -9.56843e-21)
(0.194569 -0.0563324 9.59856e-21)
(0.194758 -0.0511353 0)
(0.194731 -0.0449973 -3.22079e-20)
(0.194442 -0.0381121 3.22082e-20)
(0.193865 -0.0307143 0)
(0.193003 -0.023059 8.71235e-21)
(0.191885 -0.0153981 -8.75663e-21)
(0.190554 -0.00796229 0)
(0.189072 -0.000941892 0)
(0.1875 0.0055423 1.19469e-22)
(0.185904 0.0113808 -1.42034e-20)
(0.184349 0.0165161 1.43105e-20)
(0.182883 0.0209294 0)
(0.181545 0.0246324 0)
(0.180363 0.0276574 1.75435e-22)
(0.179358 0.0300498 0)
(0.178556 0.031868 0)
(0.177965 0.0331875 0)
(0.196785 -0.044122 0)
(0.195527 -0.0491167 0)
(0.194514 -0.0533903 0)
(0.193763 -0.0571468 1.96047e-20)
(0.193228 -0.0603394 -1.98223e-20)
(0.192911 -0.0629046 2.0695e-20)
(0.192808 -0.0647592 -2.08895e-20)
(0.1929 -0.0658056 3.21872e-22)
(0.193159 -0.0659434 0)
(0.193515 -0.0651473 0)
(0.19394 -0.0632312 -3.21314e-22)
(0.194342 -0.0601658 0)
(0.194657 -0.0560022 0)
(0.194808 -0.050814 -7.6073e-23)
(0.19473 -0.0447357 -5.30198e-20)
(0.19438 -0.0379539 5.30202e-20)
(0.193738 -0.0306917 7.04032e-23)
(0.192812 -0.0231892 0)
(0.191633 -0.0156829 0)
(0.190249 -0.00838712 2.55075e-22)
(0.188719 -0.00147928 0)
(0.187107 0.00490479 0)
(0.185478 0.0106788 -2.36645e-22)
(0.183891 0.0157862 -1.37917e-20)
(0.182393 0.0202056 1.36633e-20)
(0.181021 0.0239444 -1.2674e-20)
(0.1798 0.0270291 1.25161e-20)
(0.178748 0.0294977 0)
(0.177895 0.0314083 0)
(0.177319 0.0329051 0)
(0.196046 -0.0464487 0)
(0.195012 -0.0510239 -4.24444e-20)
(0.194102 -0.0549629 2.14015e-20)
(0.193421 -0.058427 4.44798e-20)
(0.192956 -0.0613509 -4.50182e-20)
(0.192708 -0.0636631 2.23926e-20)
(0.192666 -0.0652781 0)
(0.192816 -0.0661004 7.03071e-22)
(0.193111 -0.0660472 0)
(0.193508 -0.065074 0)
(0.193948 -0.0630054 1.13997e-20)
(0.19435 -0.059848 -1.07733e-20)
(0.194646 -0.0556412 0)
(0.194757 -0.0504622 7.98667e-23)
(0.194619 -0.0444436 -7.3421e-20)
(0.194194 -0.037765 7.34214e-20)
(0.193464 -0.0306386 -7.39141e-23)
(0.192443 -0.023291 0)
(0.191165 -0.0159438 -8.51743e-21)
(0.189684 -0.00879755 7.95683e-21)
(0.188062 -0.00201901 2.43507e-22)
(0.186367 0.00426475 0)
(0.184663 0.00996832 -4.45974e-22)
(0.183009 0.0150392 0)
(0.181452 0.0194561 1.30334e-20)
(0.180026 0.0232235 -2.48369e-20)
(0.178755 0.0263636 2.34773e-20)
(0.177651 0.0289073 1.05381e-20)
(0.176746 0.0309084 -2.17569e-20)
(0.176204 0.0325823 0)
(0.195288 -0.0486649 0)
(0.194389 -0.0528757 4.76346e-20)
(0.193562 -0.0565025 -4.68091e-20)
(0.192952 -0.0596784 0)
(0.192557 -0.0623334 0)
(0.192372 -0.0643922 7.62168e-22)
(0.192389 -0.0657678 0)
(0.192592 -0.0663659 -7.36664e-22)
(0.192925 -0.0661256 1.16313e-20)
(0.193356 -0.0649667 -1.17911e-20)
(0.193809 -0.0627499 -1.16503e-20)
(0.19421 -0.0594959 1.13484e-20)
(0.194482 -0.0552406 3.38746e-22)
(0.194546 -0.0500642 -1.63535e-22)
(0.194342 -0.0440976 -9.34315e-20)
(0.19383 -0.0375148 9.3432e-20)
(0.192999 -0.0305183 1.44763e-22)
(0.191864 -0.0233223 -2.77077e-22)
(0.190466 -0.0161349 8.51396e-21)
(0.188864 -0.00914357 -8.20651e-21)
(0.187125 -0.00250398 -8.06776e-21)
(0.185319 0.0036655 7.75685e-21)
(0.183513 0.00928345 4.67378e-22)
(0.181766 0.0143009 0)
(0.180126 0.0186976 -4.03171e-22)
(0.178627 0.0224765 0)
(0.177292 0.0256565 0)
(0.176127 0.0282627 -2.23337e-20)
(0.175162 0.0303431 2.13593e-20)
(0.174648 0.032185 0)
(0.194434 -0.0507718 4.90235e-20)
(0.19362 -0.0546344 -7.70659e-20)
(0.192868 -0.0579618 2.53918e-20)
(0.192329 -0.0608606 0)
(0.191999 -0.0632567 2.56781e-20)
(0.191875 -0.0650706 -2.51463e-20)
(0.191946 -0.0662145 2.47356e-20)
(0.192199 -0.0665968 -2.56296e-20)
(0.192568 -0.0661719 0)
(0.193027 -0.0648257 -7.74874e-22)
(0.193488 -0.0624641 1.18708e-20)
(0.19388 -0.0591097 -6.1762e-21)
(0.194122 -0.0547992 -9.30644e-22)
(0.194134 -0.0496153 -5.39806e-21)
(0.193855 -0.0436884 -1.13079e-19)
(0.193249 -0.0371881 1.13076e-19)
(0.192308 -0.030309 -4.82898e-21)
(0.191051 -0.0232544 7.71868e-22)
(0.189523 -0.0162207 -4.07088e-21)
(0.187788 -0.00938314 8.47379e-21)
(0.185917 -0.00288692 4.81083e-22)
(0.183984 0.00315786 0)
(0.182059 0.00867562 -1.41641e-20)
(0.180202 0.0136215 1.44444e-20)
(0.178461 0.0179772 -1.33061e-20)
(0.176873 0.0217455 1.27774e-20)
(0.175458 0.0249433 7.28444e-22)
(0.174222 0.0275911 1.12362e-20)
(0.173189 0.0297305 -3.28013e-20)
(0.172685 0.0317157 2.31526e-20)
(0.193439 -0.052753 -2.5672e-20)
(0.192678 -0.0562815 2.89977e-20)
(0.191996 -0.0593273 2.90416e-20)
(0.191522 -0.0619647 -2.94482e-20)
(0.191254 -0.0641139 2.75277e-20)
(0.191186 -0.0656923 -2.95824e-20)
(0.19131 -0.0666127 -8.84908e-22)
(0.191607 -0.0667879 0)
(0.192008 -0.0661782 1.30831e-20)
(0.192487 -0.0646455 3.73528e-22)
(0.192951 -0.0621412 3.22915e-22)
(0.193327 -0.0586829 -1.29094e-20)
(0.193531 -0.0543102 -5.39619e-21)
(0.193483 -0.0491089 8.53729e-21)
(0.193125 -0.0432095 -1.34842e-19)
(0.19242 -0.0367781 1.2959e-19)
(0.191365 -0.0300028 7.21907e-21)
(0.189982 -0.0230782 -5.29147e-21)
(0.188321 -0.0161899 -8.51194e-21)
(0.186449 -0.00950264 -1.21986e-22)
(0.184441 -0.00315151 -1.63984e-22)
(0.182374 0.00276153 7.63073e-21)
(0.180321 0.00816721 0)
(0.178343 0.0130254 3.8566e-22)
(0.176491 0.0173203 -1.19498e-20)
(0.174801 0.021056 1.26275e-20)
(0.173296 0.0242483 -1.17088e-20)
(0.171977 0.0269146 1.08148e-20)
(0.170866 0.0290909 1.07004e-20)
(0.170349 0.0311881 -1.21252e-20)
(0.192265 -0.0546043 0)
(0.191538 -0.0578172 2.72536e-20)
(0.190918 -0.0606014 -3.31919e-20)
(0.190505 -0.062992 3.12691e-20)
(0.190294 -0.0649049 -2.98588e-20)
(0.19028 -0.0662559 2.7412e-20)
(0.190453 -0.0669591 -2.77607e-20)
(0.190784 -0.066936 -1.81098e-21)
(0.191217 -0.0661341 -8.86434e-22)
(0.191707 -0.0644186 -8.64596e-22)
(0.192166 -0.0617723 -8.33368e-22)
(0.192519 -0.058206 4.01793e-22)
(0.192678 -0.0537644 -6.36211e-21)
(0.192565 -0.0485367 3.15743e-21)
(0.192122 -0.0426538 -1.47804e-19)
(0.191316 -0.0362794 1.53184e-19)
(0.190146 -0.0295961 2.24721e-21)
(0.188639 -0.0227907 -4.18735e-21)
(0.186846 -0.0160398 2.65916e-22)
(0.184838 -0.00949833 1.02757e-21)
(0.182694 -0.00329228 4.71552e-22)
(0.180493 0.00248439 4.46047e-22)
(0.17831 0.00776885 8.46745e-22)
(0.176208 0.0125258 -1.39926e-20)
(0.174238 0.0167428 1.37457e-20)
(0.17244 0.0204257 -1.20329e-20)
(0.170834 0.0235903 1.11126e-20)
(0.169424 0.0262525 -9.71376e-21)
(0.168227 0.028444 1.1627e-20)
(0.167675 0.0306198 0)
(0.190877 -0.056327 0)
(0.19017 -0.0592441 1.979e-21)
(0.189608 -0.0617846 -2.74326e-20)
(0.189252 -0.0639413 4.15388e-22)
(0.189094 -0.0656269 3.19283e-20)
(0.18913 -0.066757 1.95118e-21)
(0.189349 -0.0672463 1.95173e-21)
(0.189704 -0.0670316 -1.30566e-20)
(0.190164 -0.0660312 1.61338e-20)
(0.190658 -0.0641385 -4.95873e-24)
(0.191107 -0.0613472 -6.83505e-21)
(0.191428 -0.0576687 6.87611e-21)
(0.191535 -0.0531522 -2.69756e-21)
(0.191351 -0.0478903 3.10738e-21)
(0.190821 -0.0420148 -1.68635e-19)
(0.189914 -0.0356873 1.68634e-19)
(0.188631 -0.0290857 2.41215e-21)
(0.187002 -0.0223901 -2.70185e-21)
(0.185082 -0.0157691 3.95112e-21)
(0.182944 -0.00936867 -5.2244e-21)
(0.180669 -0.00330641 -2.92548e-23)
(0.178339 0.00233128 7.05312e-21)
(0.176028 0.00748784 -7.8976e-21)
(0.173803 0.0121329 -7.85258e-22)
(0.171716 0.0162577 -8.05096e-22)
(0.169806 0.0198703 1.1752e-20)
(0.168095 0.0229872 -3.29871e-22)
(0.166587 0.0256238 -1.24348e-20)
(0.165298 0.0278096 0)
(0.164691 0.030031 0)
(0.18924 -0.0579234 0)
(0.188546 -0.0605634 -3.53322e-20)
(0.188037 -0.0628755 4.09928e-22)
(0.187735 -0.0648091 5.2213e-22)
(0.187627 -0.0662747 6.53376e-20)
(0.187709 -0.0671892 -3.38911e-20)
(0.187968 -0.0674695 -2.03969e-21)
(0.188348 -0.0670627 0)
(0.188825 -0.0658613 1.44651e-20)
(0.189316 -0.0637933 -1.46692e-20)
(0.189746 -0.0608549 7.14583e-21)
(0.190029 -0.0570604 -3.9911e-22)
(0.190078 -0.0524641 -6.82465e-21)
(0.18982 -0.0471618 1.92942e-22)
(0.1892 -0.0412863 -1.85961e-19)
(0.188192 -0.0349975 1.86044e-19)
(0.186799 -0.0284694 -1.54448e-22)
(0.185054 -0.0218759 -4.51642e-21)
(0.183015 -0.015378 2.93433e-22)
(0.180755 -0.00911389 5.18399e-21)
(0.178357 -0.00319334 -7.83011e-21)
(0.175905 0.00230432 7.24478e-21)
(0.173474 0.00732855 0)
(0.171131 0.0118538 8.20728e-22)
(0.168929 0.015875 -1.1877e-20)
(0.166908 0.0194026 2.37739e-20)
(0.165092 0.0224544 -3.06572e-22)
(0.163483 0.0250462 5.57742e-22)
(0.162099 0.0272071 -1.04043e-20)
(0.16142 0.0294428 0)
(0.187323 -0.0593954 -4.55102e-21)
(0.186638 -0.061775 0)
(0.18618 -0.0638712 -2.22189e-21)
(0.185928 -0.0655902 3.34018e-20)
(0.185868 -0.0668417 -3.63072e-20)
(0.185993 -0.0675447 3.5106e-20)
(0.186284 -0.0676211 -3.54059e-20)
(0.186688 -0.0670162 -1.67225e-20)
(0.187173 -0.0656132 3.53639e-20)
(0.187655 -0.0633712 2.12174e-22)
(0.188059 -0.0602837 -1.48206e-20)
(0.188297 -0.0563703 7.05899e-21)
(0.188284 -0.0516904 -3.78013e-21)
(0.187948 -0.0463432 -5.07435e-21)
(0.187239 -0.0404624 -2.01073e-19)
(0.186131 -0.0342066 2.03852e-19)
(0.184633 -0.0277457 -3.60674e-21)
(0.182778 -0.0212481 -2.06966e-21)
(0.180627 -0.0148679 4.48362e-21)
(0.178255 -0.00873592 -8.69514e-21)
(0.175746 -0.0029547 2.98933e-23)
(0.173182 0.002403 1.2935e-20)
(0.17064 0.00729224 -6.62562e-21)
(0.168187 0.0116921 -1.19496e-20)
(0.165877 0.015601 1.17841e-20)
(0.163751 0.019032 -1.0958e-20)
(0.161831 0.0220045 1.13479e-20)
(0.160122 0.024535 -6.01766e-22)
(0.158642 0.0266537 0)
(0.15788 0.0288756 1.4341e-21)
(0.185093 -0.060744 4.73309e-21)
(0.184415 -0.0628775 -4.01295e-20)
(0.184007 -0.0647673 3.84659e-20)
(0.183805 -0.0662782 2.36962e-21)
(0.18379 -0.0673196 2.36065e-21)
(0.183957 -0.0678125 0)
(0.184268 -0.0676895 -2.31054e-21)
(0.184695 -0.0668785 -1.99263e-20)
(0.185181 -0.0652764 3.39478e-20)
(0.185649 -0.0628595 -1.83381e-20)
(0.186021 -0.0596212 -1.00417e-21)
(0.186209 -0.055587 7.32727e-21)
(0.18613 -0.0508213 -7.36664e-21)
(0.185715 -0.0454265 -2.04575e-22)
(0.184916 -0.0395375 -2.18215e-19)
(0.183712 -0.033311 2.18127e-19)
(0.182114 -0.0269134 1.56692e-22)
(0.180158 -0.0205076 -4.48066e-21)
(0.177905 -0.0142411 4.45677e-21)
(0.175432 -0.00823788 5.0384e-22)
(0.172822 -0.00259373 -6.47281e-21)
(0.170158 0.00262469 1.37389e-20)
(0.167517 0.00737764 -5.62981e-21)
(0.164964 0.0116485 6.87545e-22)
(0.162555 0.015439 0)
(0.16033 0.0187647 -6.85297e-22)
(0.158312 0.0216464 -6.5504e-22)
(0.156506 0.0241021 9.68878e-21)
(0.154933 0.0261639 -8.87681e-21)
(0.154079 0.0283476 -1.49146e-21)
(0.182516 -0.0619686 0)
(0.181848 -0.0638669 -5.62036e-23)
(0.181489 -0.0655568 4.02526e-20)
(0.181335 -0.066864 -4.10326e-20)
(0.181365 -0.0676979 -3.98232e-20)
(0.181567 -0.0679817 6.21826e-20)
(0.181902 -0.0676592 -1.7342e-20)
(0.182344 -0.0666363 -2.23713e-23)
(0.182826 -0.0648375 -2.31148e-21)
(0.183274 -0.0622445 0)
(0.183609 -0.0588544 -8.10383e-21)
(0.183742 -0.0546987 1.57603e-20)
(0.183594 -0.0498468 -7.63875e-21)
(0.183098 -0.044404 2.14066e-22)
(0.182211 -0.0385059 -2.32873e-19)
(0.180915 -0.0323076 2.32961e-19)
(0.179223 -0.0259717 -1.63962e-22)
(0.177175 -0.0196556 -4.43558e-21)
(0.174831 -0.0135005 8.42604e-21)
(0.172268 -0.00762382 -3.98557e-21)
(0.16957 -0.00211493 0)
(0.166819 0.0029651 7.52255e-22)
(0.164091 0.00758136 -7.65926e-23)
(0.161451 0.0117211 -6.03575e-21)
(0.158954 0.0153891 1.46899e-20)
(0.156639 0.0186033 -9.88492e-21)
(0.15453 0.0213857 -9.12003e-21)
(0.152633 0.0237559 9.53122e-21)
(0.15097 0.0257488 -6.51975e-23)
(0.150023 0.0278743 0)
(0.179558 -0.0630659 0)
(0.178904 -0.0647369 -3.97939e-20)
(0.178595 -0.0662306 4.33436e-20)
(0.17849 -0.0673364 3.97586e-20)
(0.178562 -0.0679638 -4.32898e-20)
(0.178797 -0.0680407 -2.31872e-20)
(0.179155 -0.0675128 8.25791e-22)
(0.179607 -0.066275 2.30116e-20)
(0.18008 -0.0642807 4.83745e-21)
(0.180504 -0.0615112 0)
(0.180795 -0.0579696 0)
(0.180871 -0.0536934 -6.84278e-21)
(0.180652 -0.0487567 8.38027e-21)
(0.180076 -0.0432678 0)
(0.179103 -0.0373623 -2.46324e-19)
(0.17772 -0.0311936 2.46321e-19)
(0.175942 -0.0249202 0)
(0.17381 -0.0186938 4.08759e-21)
(0.171386 -0.0126496 -4.83537e-21)
(0.168747 -0.00689847 0)
(0.165974 -0.00152381 0)
(0.16315 0.0034186 -1.48783e-21)
(0.160348 0.00789824 4.54652e-21)
(0.157634 0.0119059 -3.02871e-22)
(0.155059 0.0154491 -4.1822e-21)
(0.152666 0.0185475 -8.6734e-21)
(0.150475 0.0212246 8.99053e-21)
(0.148494 0.0235015 8.11351e-21)
(0.146749 0.025416 -8.48331e-21)
(0.145707 0.0274675 0)
(0.176183 -0.0640305 0)
(0.175549 -0.065476 0)
(0.175292 -0.0667764 0)
(0.175236 -0.0676818 -4.20504e-20)
(0.175353 -0.0681016 2.05715e-20)
(0.175614 -0.0679738 2.51427e-20)
(0.175997 -0.0672301 2.7261e-21)
(0.176453 -0.0657787 2.05475e-20)
(0.176914 -0.0635891 -1.14578e-21)
(0.177309 -0.0606437 -1.9921e-20)
(0.177555 -0.0569522 -1.1355e-21)
(0.177569 -0.0525583 -2.11935e-21)
(0.177278 -0.0475406 -4.70706e-21)
(0.176624 -0.0420096 3.52569e-21)
(0.175569 -0.0361012 -2.58252e-19)
(0.174104 -0.029966 2.58259e-19)
(0.172248 -0.0237583 2.57244e-21)
(0.170042 -0.0176241 -1.84137e-21)
(0.16755 -0.0116922 9.94783e-22)
(0.164848 -0.00606721 4.17376e-22)
(0.162015 -0.000826773 -5.89822e-21)
(0.159131 0.00397831 6.40073e-22)
(0.15627 0.00832154 5.20168e-21)
(0.153494 0.0121968 -5.15382e-22)
(0.150856 0.0156139 3.58364e-21)
(0.148395 0.0185943 4.06614e-21)
(0.146133 0.0211623 -7.95589e-21)
(0.144077 0.0233405 0)
(0.142256 0.0251697 0)
(0.141124 0.0271351 0)
(0.17235 -0.0648497 -4.7737e-20)
(0.171744 -0.0660714 5.0303e-20)
(0.171542 -0.0671794 0)
(0.171539 -0.0678835 -2.36624e-20)
(0.171699 -0.068094 2.6915e-20)
(0.17199 -0.0677584 2.27752e-20)
(0.172394 -0.0667919 -2.90376e-20)
(0.172851 -0.0651292 0)
(0.173298 -0.0627441 -2.64629e-21)
(0.17366 -0.0596244 0)
(0.173856 -0.0557864 3.40393e-24)
(0.173808 -0.0512798 9.10059e-24)
(0.173445 -0.0461873 1.00471e-21)
(0.172714 -0.0406213 4.55012e-22)
(0.171581 -0.034717 -2.68798e-19)
(0.170042 -0.0286221 2.68782e-19)
(0.168116 -0.0224859 -3.16541e-22)
(0.165848 -0.0164488 -5.51134e-22)
(0.163301 -0.0106327 -4.23367e-23)
(0.160548 -0.00513615 -4.51413e-23)
(0.157669 -3.11643e-05 0)
(0.154741 0.00463614 6.69686e-22)
(0.151835 0.00884293 0)
(0.149013 0.0125858 -2.77944e-21)
(0.146324 0.0158766 3.78246e-21)
(0.143807 0.0187379 2.71593e-21)
(0.141485 0.0211947 -3.10353e-21)
(0.139364 0.0232708 0)
(0.137477 0.02501 6.92552e-21)
(0.136259 0.026881 -7.30281e-21)
(0.168018 -0.0655074 0)
(0.167448 -0.0665063 7.0187e-23)
(0.167306 -0.0674208 5.33722e-20)
(0.16736 -0.0679207 -5.10484e-20)
(0.167562 -0.0679205 3.12684e-21)
(0.167888 -0.0673687 -6.12616e-21)
(0.168309 -0.0661762 2.98288e-21)
(0.168766 -0.0643035 0)
(0.169195 -0.0617246 0)
(0.169521 -0.058434 0)
(0.169666 -0.0544552 1.22781e-21)
(0.169555 -0.0498434 -7.48477e-21)
(0.169121 -0.0446851 1.20717e-20)
(0.168315 -0.0390941 -5.90801e-21)
(0.16711 -0.033204 -2.75392e-19)
(0.165503 -0.027159 2.7847e-19)
(0.163518 -0.0211033 -3.49989e-21)
(0.1612 -0.0151705 6.54274e-21)
(0.15861 -0.0094761 -4.40483e-21)
(0.155822 -0.00411224 -4.05632e-22)
(0.152912 0.000854561 -2.94096e-22)
(0.149954 0.0053826 0)
(0.147019 0.0094524 0)
(0.144163 0.0130629 -4.50541e-22)
(0.141438 0.0162275 6.91819e-22)
(0.138879 0.0189695 -2.54033e-22)
(0.136508 0.0213145 -4.43107e-21)
(0.134333 0.023287 4.12286e-21)
(0.132388 0.0249334 1.02731e-22)
(0.131093 0.0267048 0)
(0.163139 -0.065981 -5.26406e-20)
(0.162614 -0.0667608 4.8805e-20)
(0.162539 -0.0674768 2.30845e-20)
(0.162654 -0.0677669 -2.68582e-20)
(0.162901 -0.0675549 -2.88024e-20)
(0.163263 -0.0667748 2.95321e-20)
(0.163701 -0.0653589 2.44925e-20)
(0.164156 -0.0632767 -2.19043e-20)
(0.164565 -0.0605067 1.26119e-20)
(0.164853 -0.0570509 -1.13258e-20)
(0.164945 -0.0529395 1.09578e-20)
(0.16477 -0.0482332 -5.36599e-21)
(0.164266 -0.0430214 -3.93553e-21)
(0.16339 -0.0374185 2.3181e-22)
(0.162118 -0.0315562 -2.83115e-19)
(0.160453 -0.0255743 2.83093e-19)
(0.15842 -0.0196108 -1.46111e-22)
(0.156063 -0.0137927 -2.10749e-21)
(0.153445 -0.00822838 -1.21976e-21)
(0.150637 -0.0030036 3.04007e-21)
(0.147711 0.00182052 -1.71386e-21)
(0.144741 0.00620652 1.79822e-21)
(0.141791 0.0101379 -2.92023e-21)
(0.138918 0.0136157 2.57792e-21)
(0.13617 0.0166543 1.4961e-21)
(0.133582 0.0192776 -1.49422e-21)
(0.131174 0.021511 -1.33473e-21)
(0.128957 0.0233797 1.51379e-21)
(0.126964 0.0249322 4.58671e-21)
(0.125598 0.0266014 -4.38826e-21)
(0.15766 -0.0662431 -3.45982e-21)
(0.157189 -0.0668076 -5.48187e-20)
(0.157189 -0.0673169 6.03022e-20)
(0.15737 -0.0673922 0)
(0.157668 -0.0669603 -3.46739e-21)
(0.158068 -0.065946 0)
(0.158521 -0.0643084 -3.31717e-21)
(0.158974 -0.0620189 2.45378e-20)
(0.15936 -0.059063 -2.64448e-20)
(0.159608 -0.0554505 1.41613e-21)
(0.159646 -0.0512181 -2.62125e-21)
(0.159407 -0.0464314 -1.18998e-21)
(0.158836 -0.0411823 -5.42248e-22)
(0.157894 -0.0355848 -2.40612e-22)
(0.156563 -0.0297676 -2.86158e-19)
(0.154849 -0.0238655 2.86149e-19)
(0.152779 -0.0180097 1.51659e-22)
(0.150398 -0.0123197 2.50931e-22)
(0.147767 -0.00689678 -3.49761e-22)
(0.144954 -0.00181999 0)
(0.14203 0.00285487 -1.90433e-22)
(0.139063 0.00709441 -2.10617e-21)
(0.136115 0.0108849 2.40288e-21)
(0.133241 0.0142289 9.07056e-23)
(0.130485 0.0171415 0)
(0.127881 0.0196467 -1.10452e-24)
(0.12545 0.0217695 0)
(0.123201 0.0235354 8.04695e-22)
(0.121171 0.0249942 -7.38267e-22)
(0.119744 0.0265605 1.75829e-22)
(0.151517 -0.0662608 -5.44794e-20)
(0.151113 -0.0666063 5.72347e-20)
(0.151197 -0.0669007 9.66623e-23)
(0.151447 -0.0667576 3.22189e-20)
(0.151806 -0.0660925 -5.41554e-20)
(0.152242 -0.0648451 3.26062e-20)
(0.152712 -0.0629874 3.41461e-21)
(0.15316 -0.0604951 3.81586e-23)
(0.153522 -0.0573616 0)
(0.153728 -0.0536043 -1.46244e-21)
(0.153711 -0.0492666 -7.54014e-21)
(0.15341 -0.0444181 1.15887e-20)
(0.152775 -0.0391523 5.39465e-22)
(0.151773 -0.0335819 -1.5321e-21)
(0.150392 -0.0278318 -2.84062e-19)
(0.148639 -0.0220306 2.87076e-19)
(0.146546 -0.0163019 -1.36385e-21)
(0.144156 -0.0107574 -2.02123e-22)
(0.141528 -0.00549045 2.65792e-21)
(0.138728 -0.000573515 -2.26984e-21)
(0.135823 0.00394303 1.9666e-22)
(0.132877 0.00802965 0)
(0.129949 0.0116751 1.69468e-22)
(0.127089 0.0148831 -9.33694e-23)
(0.124341 0.0176693 -3.33047e-22)
(0.121737 0.020057 1.17629e-21)
(0.119295 0.0220704 -5.20254e-22)
(0.117026 0.0237349 1.57796e-22)
(0.114968 0.0251013 2.6183e-22)
(0.113489 0.026566 -4.45039e-22)
(0.144635 -0.0659861 0)
(0.144314 -0.0661069 0)
(0.14449 -0.066178 -3.38678e-20)
(0.144819 -0.0658087 2.73708e-20)
(0.145241 -0.0649032 0)
(0.145716 -0.0634252 -3.66772e-21)
(0.146203 -0.0613507 -3.61656e-21)
(0.146646 -0.058663 -3.41022e-21)
(0.146981 -0.055364 0)
(0.147144 -0.0514788 0)
(0.147072 -0.0470564 -1.38747e-21)
(0.146709 -0.04217 5.29529e-21)
(0.146013 -0.0369137 -5.82009e-21)
(0.144958 -0.0313979 -2.4168e-22)
(0.143535 -0.0257423 -2.81676e-19)
(0.141758 -0.0200682 2.81741e-19)
(0.139655 -0.0144911 1.35414e-22)
(0.137273 -0.00911366 -9.35478e-22)
(0.134667 -0.00402139 1.30602e-21)
(0.131899 0.000720299 0)
(0.129032 0.0050664 0)
(0.126126 0.00899109 0)
(0.123236 0.0124853 0)
(0.12041 0.0155538 -2.51575e-22)
(0.117686 0.0182118 -1.26578e-22)
(0.115096 0.020482 0)
(0.112658 0.0223873 -2.51288e-21)
(0.110381 0.0239524 2.04354e-21)
(0.108307 0.0252284 0)
(0.106786 0.0265935 0)
(0.136923 -0.0653546 -3.98955e-21)
(0.136702 -0.065243 0)
(0.136981 -0.0650863 0)
(0.137401 -0.0644764 0)
(0.137889 -0.0633314 0)
(0.138405 -0.0616255 0)
(0.138907 -0.0593409 3.69366e-21)
(0.139342 -0.05647 1.79164e-21)
(0.139648 -0.0530232 -1.27869e-20)
(0.139765 -0.0490328 2.80844e-21)
(0.139637 -0.0445532 2.40204e-20)
(0.139215 -0.0396599 -1.61339e-20)
(0.138463 -0.0344465 7.02196e-22)
(0.137363 -0.0290196 4.09983e-21)
(0.13591 -0.0234925 -2.72671e-19)
(0.13412 -0.0179783 2.72628e-19)
(0.132026 -0.0125829 1.57258e-21)
(0.12967 -0.00739986 -5.56738e-22)
(0.127106 -0.00250586 -2.19032e-21)
(0.124391 0.00204079 1.45727e-21)
(0.121585 0.00620049 -6.05794e-22)
(0.118741 0.009951 3.02989e-22)
(0.11591 0.0132852 1.89208e-22)
(0.113136 0.0162082 2.56935e-22)
(0.110456 0.018735 0)
(0.107897 0.0208867 0)
(0.105477 0.0226846 0)
(0.103206 0.0241521 0)
(0.101127 0.0253399 0)
(0.0995733 0.0266085 -3.5286e-22)
(0.128269 -0.0642794 8.21805e-21)
(0.128169 -0.0639291 -3.27997e-20)
(0.128564 -0.0635323 3.40788e-20)
(0.129081 -0.062676 0)
(0.129637 -0.0612946 -3.20518e-20)
(0.130194 -0.059367 3.70421e-20)
(0.13071 -0.0568846 -3.17239e-20)
(0.131133 -0.0538493 2.68402e-20)
(0.131406 -0.0502801 0)
(0.131475 -0.0462158 1.04122e-20)
(0.13129 -0.0417153 -2.88353e-21)
(0.130812 -0.0368552 -1.56222e-20)
(0.13001 -0.031727 5.31818e-21)
(0.128874 -0.0264323 1.64984e-21)
(0.127404 -0.0210764 -2.59458e-19)
(0.12562 -0.0157629 2.56716e-19)
(0.123553 -0.0105872 9.5555e-22)
(0.121245 -0.00563257 5.6812e-22)
(0.118747 -0.000966696 -1.11296e-21)
(0.11611 0.00335954 9.67097e-22)
(0.113388 0.00731195 -5.03752e-22)
(0.11063 0.0108717 -2.48595e-22)
(0.107882 0.0140334 -4.87769e-21)
(0.105183 0.0168023 3.90665e-21)
(0.102567 0.0191922 -4.64907e-21)
(0.100059 0.0212226 5.28043e-21)
(0.0976748 0.0229126 0)
(0.0954256 0.024284 -5.58827e-21)
(0.0933542 0.0253859 5.41046e-21)
(0.0917783 0.0265609 9.52673e-22)
(0.118532 -0.0626372 2.62046e-20)
(0.118574 -0.0620408 -3.4114e-20)
(0.119099 -0.0613925 -3.00863e-20)
(0.119716 -0.0602928 3.57533e-20)
(0.120342 -0.058681 3.75861e-20)
(0.120937 -0.0565446 -7.4661e-20)
(0.121462 -0.0538851 5.23452e-20)
(0.121867 -0.0507142 -1.38615e-20)
(0.122102 -0.0470587 0)
(0.12212 -0.0429637 -1.21434e-20)
(0.121878 -0.0384907 1.09219e-20)
(0.121346 -0.0337161 -6.26527e-22)
(0.120502 -0.0287279 -1.94926e-21)
(0.119342 -0.0236204 2.74471e-21)
(0.117872 -0.0184897 -2.36531e-19)
(0.116113 -0.0134282 2.35331e-19)
(0.114097 -0.00851982 8.68224e-22)
(0.111864 -0.00383672 -4.6176e-22)
(0.109458 0.000562984 -3.03423e-23)
(0.106928 0.00463606 -1.67346e-21)
(0.10432 0.00835376 1.69074e-21)
(0.101677 0.0117005 6.39677e-22)
(0.0990391 0.0146722 3.58203e-21)
(0.0964418 0.0172738 -9.51012e-21)
(0.0939143 0.019518 1.27625e-20)
(0.09148 0.0214216 -6.28992e-21)
(0.0891521 0.0230012 -8.01864e-21)
(0.0869424 0.0242763 7.76202e-21)
(0.0848942 0.0252939 6.48575e-21)
(0.0833088 0.0263777 -8.08859e-21)
(0.107529 -0.0602468 4.09477e-20)
(0.107735 -0.059394 4.81178e-21)
(0.108394 -0.0584976 -5.73105e-21)
(0.109112 -0.0571613 -3.72101e-20)
(0.109804 -0.0553339 -4.35456e-21)
(0.110431 -0.0530131 6.40496e-21)
(0.110955 -0.0502109 5.73799e-23)
(0.111334 -0.046948 0)
(0.111524 -0.043259 0)
(0.111486 -0.0391931 -1.21858e-20)
(0.111188 -0.0348133 1.38714e-20)
(0.110607 -0.030194 6.30994e-22)
(0.109732 -0.025417 0)
(0.108564 -0.020568 5.21192e-22)
(0.107114 -0.0157317 -2.06305e-19)
(0.105406 -0.0109877 2.05232e-19)
(0.10347 -0.00640744 3.45653e-22)
(0.101343 -0.00205105 0)
(0.0990649 0.00203344 3.05585e-23)
(0.096676 0.00581065 -2.34868e-21)
(0.0942164 0.00925722 2.1914e-21)
(0.0917231 0.0123606 -3.89685e-22)
(0.0892299 0.0151177 0)
(0.0867665 0.017533 1.68781e-22)
(0.0843584 0.019617 1.78921e-21)
(0.0820259 0.0213838 -1.11938e-21)
(0.0797805 0.0228471 1.05144e-20)
(0.0776336 0.0240232 -1.33487e-23)
(0.0756285 0.0249562 4.34905e-22)
(0.0740494 0.0259496 -8.1581e-21)
(0.0950084 -0.0568266 -3.82656e-20)
(0.0953929 -0.0557264 3.27438e-20)
(0.0961852 -0.0545912 0)
(0.0969966 -0.0530379 -3.40921e-20)
(0.0977422 -0.0510265 4.01036e-20)
(0.0983856 -0.0485655 -1.90975e-20)
(0.0988957 -0.0456769 3.13969e-20)
(0.0992361 -0.0423898 -1.44768e-20)
(0.0993718 -0.0387446 0)
(0.0992738 -0.0347931 0)
(0.0989206 -0.0305978 5.9358e-21)
(0.0982997 -0.026228 -5.90801e-21)
(0.0974088 -0.0217576 0)
(0.0962549 -0.017261 1.96469e-22)
(0.0948544 -0.0128094 -1.65219e-19)
(0.0932307 -0.00846849 1.65185e-19)
(0.0914127 -0.00429537 -3.69213e-23)
(0.0894327 -0.000337673 0)
(0.0873243 0.00336717 1.20723e-21)
(0.0851209 0.00679178 -1.10922e-21)
(0.0828546 0.00991808 0)
(0.080555 0.0127364 0)
(0.0782492 0.015244 6.75955e-21)
(0.0759613 0.0174444 -1.27457e-20)
(0.0737122 0.0193457 5.40785e-21)
(0.0715189 0.0209588 -1.23777e-20)
(0.0693908 0.0222936 1.38061e-20)
(0.0673386 0.0233634 0)
(0.0654046 0.0242077 -1.29641e-20)
(0.0638541 0.0251075 1.02439e-20)
(0.0806107 -0.0519295 -3.75341e-20)
(0.0811715 -0.0506103 3.6509e-20)
(0.0820794 -0.0492682 -3.86993e-20)
(0.0829605 -0.0475456 6.15751e-23)
(0.0837342 -0.0454146 4.20602e-22)
(0.0843698 -0.0428935 5.70146e-20)
(0.0848434 -0.040013 -1.77957e-20)
(0.085128 -0.0368088 -1.95196e-21)
(0.0851992 -0.0333247 1.34497e-20)
(0.0850393 -0.0296128 -2.55836e-20)
(0.084638 -0.0257317 1.20412e-20)
(0.0839934 -0.0217433 4.64006e-21)
(0.0831115 -0.0177102 -5.64701e-21)
(0.0820054 -0.013693 2.07033e-21)
(0.0806943 -0.00974757 -1.13319e-19)
(0.0792014 -0.00592359 1.12674e-19)
(0.0775526 -0.00226314 -2.92217e-22)
(0.0757743 0.0011995 1.78287e-21)
(0.0738928 0.00443778 -1.24849e-21)
(0.0719332 0.0074323 -5.27694e-21)
(0.069919 0.0101701 1.1591e-20)