/*--------------------------------*- C++ -*----------------------------------*\
  =========                 |
  \\      /  F ield         | OpenFOAM: The Open Source CFD Toolbox
   \\    /   O peration     | Website:  https://openfoam.org
    \\  /    A nd           | Version:  12
     \\/     M anipulation  |
\*---------------------------------------------------------------------------*/
FoamFile
{
    format      ascii;
    class       volVectorField;
    location    "380";
    object      UMean;
}
// * * * * * * * * * * * * * * * * * * * * * * * * * * * * * * * * * * * * * //

dimensions      [0 1 -1 0 0 0 0];

internalField   nonuniform List<vector> 
6750
(
(0.20007 -0.00309099 0)
(0.200359 -0.00942372 0)
(0.200645 -0.0152371 0)
(0.200892 -0.0206083 0)
(0.200779 -0.0256337 0)
(0.200037 -0.00347015 0)
(0.200281 -0.0100233 0)
(0.200484 -0.0157683 0)
(0.200564 -0.0208576 0)
(0.20045 -0.02538 0)
(0.200026 -0.0036339 0)
(0.200128 -0.0102524 0)
(0.200145 -0.0158696 0)
(0.200023 -0.0206761 0)
(0.199782 -0.0247729 0)
(0.20001 -0.00366758 0)
(0.199959 -0.010203 0)
(0.199782 -0.0156286 0)
(0.199479 -0.0201723 0)
(0.199106 -0.0239716 0)
(0.199995 -0.00359996 0)
(0.199803 -0.00992368 0)
(0.199441 -0.0151019 0)
(0.19896 -0.0193892 0)
(0.198441 -0.0229482 0)
(0.199983 -0.00344849 0)
(0.19966 -0.00944899 0)
(0.199122 -0.0143229 0)
(0.198459 -0.0183363 0)
(0.197774 -0.0216608 0)
(0.199973 -0.00322757 0)
(0.199527 -0.00880637 0)
(0.198814 -0.0133169 0)
(0.197965 -0.0170231 0)
(0.197101 -0.0200941 0)
(0.199964 -0.00294827 0)
(0.1994 -0.00801871 0)
(0.198518 -0.0121076 0)
(0.197483 -0.0154663 0)
(0.196433 -0.0182537 0)
(0.199955 -0.00262023 0)
(0.199282 -0.00710864 0)
(0.198239 -0.0107232 0)
(0.197025 -0.013694 0)
(0.195791 -0.0161648 0)
(0.199948 -0.0022533 0)
(0.199175 -0.00610093 0)
(0.197986 -0.00919752 0)
(0.196607 -0.0117453 0)
(0.195202 -0.0138689 0)
(0.199941 -0.00185791 0)
(0.199083 -0.00502249 0)
(0.197768 -0.00756924 0)
(0.196246 -0.00966693 0)
(0.19469 -0.0114188 0)
(0.199937 -0.00144479 0)
(0.199009 -0.00390113 0)
(0.197591 -0.00587902 0)
(0.195953 -0.00750953 0)
(0.194274 -0.00887332 0)
(0.199933 -0.00102434 0)
(0.198956 -0.00276387 0)
(0.197461 -0.00416671 0)
(0.195736 -0.00532319 0)
(0.193966 -0.00629138 0)
(0.199929 -0.00060585 0)
(0.198924 -0.00163555 0)
(0.197378 -0.00246847 0)
(0.195598 -0.00315362 0)
(0.193767 -0.00372741 0)
(0.19992 -0.000201072 0)
(0.198919 -0.000535833 0)
(0.197341 -0.000813057 0)
(0.195534 -0.001039 0)
(0.193673 -0.00122801 0)
(0.19992 0.000201006 0)
(0.198919 0.000535752 0)
(0.197341 0.000813002 0)
(0.195534 0.00103899 0)
(0.193673 0.00122805 0)
(0.199929 0.000605783 0)
(0.198924 0.00163547 0)
(0.197378 0.00246841 0)
(0.195598 0.00315362 0)
(0.193767 0.00372744 0)
(0.199933 0.00102427 0)
(0.198956 0.00276379 0)
(0.197461 0.00416666 0)
(0.195736 0.00532318 0)
(0.193965 0.00629141 0)
(0.199937 0.00144472 0)
(0.199009 0.00390105 0)
(0.197591 0.00587897 0)
(0.195953 0.00750952 0)
(0.194274 0.00887337 0)
(0.199941 0.00185785 0)
(0.199083 0.00502241 0)
(0.197768 0.0075692 0)
(0.196246 0.00966692 0)
(0.19469 0.0114188 0)
(0.199948 0.00225324 0)
(0.199175 0.00610085 0)
(0.197986 0.00919747 0)
(0.196607 0.0117453 0)
(0.195202 0.0138689 0)
(0.199955 0.00262017 0)
(0.199282 0.00710857 0)
(0.198239 0.0107231 0)
(0.197025 0.013694 0)
(0.195791 0.0161649 0)
(0.199964 0.00294821 0)
(0.1994 0.00801864 0)
(0.198518 0.0121076 0)
(0.197483 0.0154663 0)
(0.196433 0.0182538 0)
(0.199973 0.00322753 0)
(0.199527 0.00880632 0)
(0.198814 0.0133169 0)
(0.197965 0.0170231 0)
(0.197101 0.0200941 0)
(0.199983 0.00344845 0)
(0.19966 0.00944895 0)
(0.199122 0.0143229 0)
(0.198459 0.0183363 0)
(0.197774 0.0216608 0)
(0.199995 0.00359993 0)
(0.199803 0.00992364 0)
(0.199441 0.0151019 0)
(0.19896 0.0193892 0)
(0.198441 0.0229483 0)
(0.20001 0.00366756 0)
(0.199959 0.010203 0)
(0.199782 0.0156286 0)
(0.199479 0.0201723 0)
(0.199106 0.0239717 0)
(0.200026 0.00363389 0)
(0.200128 0.0102523 0)
(0.200145 0.0158696 0)
(0.200023 0.0206761 0)
(0.199782 0.0247729 0)
(0.200037 0.00347014 0)
(0.200281 0.0100233 0)
(0.200484 0.0157683 0)
(0.200564 0.0208576 0)
(0.20045 0.02538 0)
(0.20007 0.00309098 0)
(0.200359 0.0094237 0)
(0.200645 0.015237 0)
(0.200892 0.0206082 0)
(0.200779 0.0256337 0)
(0.198778 -0.0368574 0)
(0.197178 -0.0421378 0)
(0.195833 -0.0469496 0)
(0.194925 -0.051247 1.46112e-22)
(0.194311 -0.0549263 0)
(0.193934 -0.0579315 0)
(0.193783 -0.0602008 -1.02234e-20)
(0.193844 -0.0616431 1.03212e-20)
(0.194095 -0.0621479 8.64292e-23)
(0.194469 -0.0616585 5.50208e-21)
(0.194938 -0.0600413 3.79848e-23)
(0.195424 -0.0571681 1.4601e-23)
(0.195847 -0.053097 -2.8615e-21)
(0.196125 -0.0478962 -2.85302e-21)
(0.196185 -0.0417072 -6.66163e-21)
(0.195972 -0.0347377 6.66402e-21)
(0.195457 -0.027244 -2.65122e-21)
(0.194641 -0.0195045 -2.42044e-21)
(0.193554 -0.0117972 2.25482e-22)
(0.192246 -0.00437361 2.62175e-22)
(0.190771 0.00256132 4.5666e-21)
(0.189208 0.00889272 -6.58843e-23)
(0.187637 0.0145023 7.32163e-21)
(0.186121 0.0193385 -7.25688e-21)
(0.18471 0.0233954 0)
(0.183445 0.0266976 0)
(0.182356 0.0292893 -8.23024e-23)
(0.181468 0.0312263 0)
(0.180805 0.0325702 0)
(0.180351 0.0333539 0)
(0.197955 -0.0400698 0)
(0.196513 -0.0452559 0)
(0.195443 -0.0496511 0)
(0.194715 -0.0534609 -1.38125e-22)
(0.194214 -0.0566739 0)
(0.193926 -0.0592534 0)
(0.19385 -0.0611319 1.06922e-20)
(0.193972 -0.0622163 -1.09618e-20)
(0.194265 -0.0624045 -8.13618e-23)
(0.194665 -0.0616556 0)
(0.195142 -0.0598102 0)
(0.195612 -0.0568013 -5.25181e-21)
(0.196007 -0.0526817 5.26835e-21)
(0.196248 -0.0475216 0)
(0.19627 -0.0414561 -1.75666e-20)
(0.196025 -0.0346767 1.75676e-20)
(0.195488 -0.0274159 0)
(0.194663 -0.0199266 4.70875e-21)
(0.193579 -0.0124581 -4.73366e-21)
(0.19228 -0.0052381 0)
(0.190831 0.00154696 0)
(0.189293 0.00777662 6.18286e-23)
(0.187733 0.0133461 -7.17353e-21)
(0.186219 0.0182023 7.22567e-21)
(0.184797 0.0223307 0)
(0.183507 0.0257469 0)
(0.182377 0.0284859 7.75281e-23)
(0.181427 0.0305954 0)
(0.180687 0.0321353 0)
(0.180161 0.0331738 0)
(0.197178 -0.042548 0)
(0.19604 -0.0472438 0)
(0.195143 -0.05124 0)
(0.194502 -0.0547335 1.13005e-20)
(0.194073 -0.0576807 -1.14256e-20)
(0.193856 -0.0600218 1.19339e-20)
(0.193847 -0.0616777 -1.2046e-20)
(0.194029 -0.062554 1.82087e-22)
(0.19437 -0.0625571 0)
(0.194808 -0.0616484 0)
(0.195308 -0.0596565 -1.81635e-22)
(0.195783 -0.0565576 0)
(0.196166 -0.0523953 0)
(0.19638 -0.0472422 -4.14192e-23)
(0.196361 -0.0412313 -2.84825e-20)
(0.196064 -0.0345474 2.84832e-20)
(0.19547 -0.0274118 3.67256e-23)
(0.194587 -0.0200629 0)
(0.193445 -0.0127352 0)
(0.192094 -0.00564104 1.26874e-22)
(0.190596 0.00104471 0)
(0.189016 0.00718882 0)
(0.18742 0.012708 -1.17785e-22)
(0.185867 0.0175494 -6.43415e-21)
(0.184408 0.0216957 6.37425e-21)
(0.183077 0.0251579 -5.52491e-21)
(0.181901 0.0279661 5.45141e-21)
(0.180896 0.0301611 0)
(0.180096 0.0318032 0)
(0.179566 0.033021 0)
(0.196489 -0.0447718 0)
(0.195563 -0.049065 -2.51339e-20)
(0.194765 -0.052743 1.26351e-20)
(0.194193 -0.0559606 2.64233e-20)
(0.193834 -0.0586555 -2.6746e-20)
(0.193687 -0.0607599 1.33006e-20)
(0.193744 -0.0621921 0)
(0.193989 -0.0628593 4.16918e-22)
(0.194376 -0.0626834 0)
(0.194863 -0.0616069 0)
(0.19539 -0.0594733 6.45173e-21)
(0.195878 -0.0562869 -6.09506e-21)
(0.196256 -0.0520829 0)
(0.196443 -0.0469371 4.34848e-23)
(0.196378 -0.0409807 -3.88517e-20)
(0.196017 -0.0343919 3.88542e-20)
(0.195346 -0.0273815 -3.85583e-23)
(0.194375 -0.0201747 0)
(0.19314 -0.0129921 -4.16301e-21)
(0.191696 -0.00603259 3.89144e-21)
(0.190107 0.000538946 1.11557e-22)
(0.188442 0.00659788 0)
(0.186767 0.0120611 -1.93757e-22)
(0.185144 0.0168797 0)
(0.183618 0.0210357 5.47778e-21)
(0.182226 0.0245375 -1.0259e-20)
(0.180993 0.0274105 9.33912e-21)
(0.179929 0.0296891 3.77953e-21)
(0.179068 0.0314298 -8.15631e-21)
(0.178554 0.0328256 0)
(0.195777 -0.0468879 0)
(0.19498 -0.0508334 2.9112e-20)
(0.194263 -0.0542165 -2.85948e-20)
(0.193763 -0.0571637 0)
(0.193475 -0.0596077 0)
(0.193397 -0.0614764 4.68758e-22)
(0.193518 -0.0626863 0)
(0.193825 -0.0631457 -4.36756e-22)
(0.194261 -0.0627936 6.84134e-21)
(0.194795 -0.0615432 -6.9504e-21)
(0.195349 -0.0592712 -6.65917e-21)
(0.19585 -0.055993 6.48558e-21)
(0.19622 -0.0517417 1.87923e-22)
(0.196377 -0.046596 -8.83466e-23)
(0.19626 -0.0406857 -4.86769e-20)
(0.195826 -0.0341836 4.86803e-20)
(0.195064 -0.0272913 7.11629e-23)
(0.193989 -0.0202222 -1.31548e-22)
(0.192642 -0.0131838 3.94641e-21)
(0.191081 -0.00636279 -3.80216e-21)
(0.189376 8.65241e-05 -3.52751e-21)
(0.1876 0.00604761 3.38628e-21)
(0.185821 0.0114412 2.03056e-22)
(0.1841 0.0162212 0)
(0.182486 0.0203707 -1.50472e-22)
(0.181015 0.0238962 0)
(0.17971 0.0268198 0)
(0.178579 0.0291703 -7.73079e-21)
(0.177651 0.0309988 7.4073e-21)
(0.177147 0.0325628 0)
(0.194971 -0.0489002 3.08896e-20)
(0.194257 -0.0525163 -4.85035e-20)
(0.193616 -0.0556189 1.59431e-20)
(0.193188 -0.0583082 0)
(0.19297 -0.0605123 1.60025e-20)
(0.192958 -0.0621548 -1.56571e-20)
(0.193143 -0.0631506 1.51835e-20)
(0.193509 -0.0634106 -1.57098e-20)
(0.193995 -0.0628851 0)
(0.19457 -0.0614602 -4.62492e-22)
(0.195149 -0.0590526 6.84074e-21)
(0.195658 -0.0556785 -3.63788e-21)
(0.196014 -0.0513726 -6.0353e-22)
(0.196135 -0.0462163 -2.95465e-21)
(0.195959 -0.0403389 -5.79403e-20)
(0.195446 -0.0339091 5.79377e-20)
(0.194586 -0.027121 -2.29471e-21)
(0.193399 -0.0201782 4.45048e-22)
(0.191929 -0.0132767 -1.6989e-21)
(0.19024 -0.00659168 3.70623e-21)
(0.188407 -0.000267648 1.89549e-22)
(0.186504 0.00558657 0)
(0.184605 0.0108972 -5.29493e-21)
(0.18277 0.015622 5.38792e-21)
(0.181051 0.0197454 -4.60527e-21)
(0.179486 0.0232737 4.44411e-21)
(0.178095 0.026227 2.2369e-22)
(0.176886 0.0286296 3.50701e-21)
(0.175883 0.0305267 -1.05524e-20)
(0.175373 0.032236 7.56463e-21)
(0.19403 -0.0507961 -1.65811e-20)
(0.193371 -0.054099 1.87272e-20)
(0.192801 -0.0569402 1.86512e-20)
(0.192443 -0.0593881 -1.89091e-20)
(0.192292 -0.0613652 1.74997e-20)
(0.192344 -0.0627914 -1.87922e-20)
(0.192592 -0.0635816 -5.69382e-22)
(0.193013 -0.0636511 0)
(0.193546 -0.0629519 7.91586e-21)
(0.194156 -0.061354 6.29536e-23)
(0.194754 -0.0588118 1.31785e-23)
(0.195265 -0.0553377 -7.48733e-21)
(0.1956 -0.0509695 -2.94021e-21)
(0.195678 -0.0457918 4.60115e-21)
(0.195437 -0.0399342 -6.79115e-20)
(0.19484 -0.0335621 6.52633e-20)
(0.193879 -0.0268639 3.3529e-21)
(0.192576 -0.0200346 -2.40701e-21)
(0.190981 -0.0132606 -3.48427e-21)
(0.189161 -0.00670689 1.41606e-22)
(0.187194 -0.000508655 8.96323e-23)
(0.185159 0.00523291 2.80088e-21)
(0.183131 0.01045 0)
(0.181174 0.0151044 9.56166e-23)
(0.17934 0.0191833 -3.60908e-21)
(0.177668 0.0226937 3.83812e-21)
(0.176181 0.0256545 -3.29835e-21)
(0.174883 0.0280873 3.03605e-21)
(0.173797 0.0300321 3.20653e-21)
(0.173262 0.0318577 -3.62266e-21)
(0.192918 -0.0525746 0)
(0.192297 -0.0555845 1.79005e-20)
(0.191794 -0.058185 -2.17855e-20)
(0.191502 -0.060407 2.03638e-20)
(0.191416 -0.0621683 -1.94526e-20)
(0.191531 -0.0633868 1.75645e-20)
(0.191839 -0.0639778 -1.77989e-20)
(0.192307 -0.0638644 -1.14607e-21)
(0.192885 -0.0629858 -5.51604e-22)
(0.193523 -0.0612179 -5.27041e-22)
(0.194133 -0.0585407 -4.91503e-22)
(0.194637 -0.0549618 2.30407e-22)
(0.194943 -0.0505238 -3.4604e-21)
(0.194973 -0.0453148 1.7832e-21)
(0.194663 -0.039465 -7.284e-20)
(0.193978 -0.0331377 7.54937e-20)
(0.192914 -0.0265164 9.08171e-22)
(0.191497 -0.019789 -1.83706e-21)
(0.189778 -0.0131333 1.00372e-22)
(0.187828 -0.00670545 3.74343e-22)
(0.185729 -0.000631897 1.49601e-22)
(0.183562 0.00499354 1.29687e-22)
(0.181404 0.010109 2.2641e-22)
(0.179321 0.0146809 -3.77119e-21)
(0.177367 0.0186993 3.64817e-21)
(0.175583 0.0221727 -2.89264e-21)
(0.173991 0.0251202 2.65671e-21)
(0.172597 0.0275616 -2.16808e-21)
(0.171419 0.0295333 2.60757e-21)
(0.170841 0.0314443 0)
(0.191603 -0.0542402 0)
(0.191009 -0.0569785 1.33649e-21)
(0.190569 -0.0593569 -1.82725e-20)
(0.190341 -0.0613662 3.9569e-22)
(0.190317 -0.062921 2.11543e-20)
(0.190492 -0.0639384 1.26762e-21)
(0.190858 -0.0643339 1.26984e-21)
(0.191365 -0.0640428 -8.23218e-21)
(0.191984 -0.0629795 1.01865e-20)
(0.192641 -0.0610456 -7.7661e-24)
(0.193256 -0.0582297 -4.00532e-21)
(0.193745 -0.0545407 4.02938e-21)
(0.194016 -0.0500261 -1.45256e-21)
(0.193989 -0.044777 1.67942e-21)
(0.193606 -0.0389248 -8.13924e-20)
(0.192832 -0.0326313 8.13886e-20)
(0.191667 -0.0260757 1.00234e-21)
(0.190137 -0.0194399 -1.12087e-21)
(0.188299 -0.0128941 1.35674e-21)
(0.186225 -0.00658637 -1.78744e-21)
(0.183998 -0.000635264 -3.03509e-23)
(0.181703 0.00487241 1.76678e-21)
(0.179418 0.00988061 -2.01673e-21)
(0.177212 0.0143604 -1.46197e-22)
(0.175138 0.018305 -1.85598e-22)
(0.17324 0.0217251 2.11454e-21)
(0.17154 0.0246403 -2.04964e-22)
(0.170044 0.0270702 -2.06525e-21)
(0.16877 0.0290488 0)
(0.16813 0.0310145 0)
(0.190053 -0.0557985 0)
(0.18948 -0.0582848 -2.40129e-20)
(0.1891 -0.0604566 3.94668e-22)
(0.188934 -0.0622644 4.99584e-22)
(0.188969 -0.0636201 4.37612e-20)
(0.189201 -0.0644415 -2.26072e-20)
(0.189618 -0.0646458 -1.32708e-21)
(0.190165 -0.0641758 0)
(0.190814 -0.0629251 9.02778e-21)
(0.191483 -0.0608256 -9.17869e-21)
(0.192095 -0.0578679 4.20235e-21)
(0.19256 -0.0540641 -3.95392e-22)
(0.192788 -0.0494666 -3.85201e-21)
(0.192701 -0.0441701 1.00125e-22)
(0.192241 -0.0383072 -8.76028e-20)
(0.191378 -0.0320384 8.76375e-20)
(0.190112 -0.0255395 -6.20401e-23)
(0.188474 -0.0189866 -1.58383e-21)
(0.186523 -0.0125434 2.79433e-22)
(0.184332 -0.00635027 1.57803e-21)
(0.181986 -0.000518784 -1.821e-21)
(0.179571 0.00487088 1.64028e-21)
(0.177167 0.00976825 0)
(0.174842 0.0141488 1.52779e-22)
(0.172653 0.0180093 -1.45818e-21)
(0.170641 0.0213625 2.70843e-21)
(0.168833 0.0242292 -1.84689e-22)
(0.167234 0.0266292 7.16559e-23)
(0.165862 0.0285963 -9.7106e-22)
(0.165147 0.030588 0)
(0.188237 -0.0572542 -3.17608e-21)
(0.187683 -0.0595059 0)
(0.187362 -0.0614837 -1.52033e-21)
(0.187254 -0.0630984 2.27725e-20)
(0.187347 -0.0642605 -2.47919e-20)
(0.187633 -0.0648893 2.34479e-20)
(0.188092 -0.0649064 -2.36245e-20)
(0.188676 -0.0642512 -1.07801e-20)
(0.189347 -0.062812 2.25607e-20)
(0.190021 -0.0605463 -1.61104e-22)
(0.190621 -0.0574434 -9.07526e-21)
(0.191055 -0.0535206 3.97808e-21)
(0.191234 -0.0488353 -2.23135e-21)
(0.191082 -0.0434858 -2.64787e-21)
(0.190543 -0.0376059 -9.21204e-20)
(0.18959 -0.0313552 9.33949e-20)
(0.188227 -0.0249059 -1.38207e-21)
(0.186487 -0.0184293 -5.36389e-22)
(0.18443 -0.0120825 1.42437e-21)
(0.182131 -0.00599928 -1.91258e-21)
(0.179675 -0.000284468 3.68956e-22)
(0.177151 0.00498784 1.93763e-21)
(0.174636 0.00977238 -8.45454e-22)
(0.172201 0.0140489 -7.21359e-22)
(0.169903 0.0178173 7.11387e-22)
(0.167784 0.0210929 -2.72066e-22)
(0.165871 0.0238976 1.71722e-22)
(0.164169 0.0262522 3.6801e-23)
(0.162699 0.0281914 0)
(0.161899 0.030183 1.77687e-22)
(0.186124 -0.0586113 3.30318e-21)
(0.185589 -0.0606424 -2.81127e-20)
(0.185324 -0.0624356 2.69332e-20)
(0.185274 -0.0638632 1.63461e-21)
(0.185422 -0.0648351 1.61453e-21)
(0.18576 -0.0652718 0)
(0.186253 -0.0651044 -1.55534e-21)
(0.186871 -0.0642561 -1.29931e-20)
(0.187555 -0.062629 2.18404e-20)
(0.188228 -0.0601947 -1.163e-20)
(0.188808 -0.0569435 -6.05008e-22)
(0.189203 -0.0528983 4.11911e-21)
(0.189327 -0.0481218 -4.14124e-21)
(0.189106 -0.0427155 -1.0347e-22)
(0.188487 -0.0368146 -9.70095e-20)
(0.187447 -0.0305776 9.69735e-20)
(0.18599 -0.0241734 5.53569e-23)
(0.184154 -0.0177684 -1.25682e-21)
(0.181999 -0.0115136 1.25021e-21)
(0.179602 -0.0055366 1.08078e-22)
(0.177048 6.41734e-05 -6.18539e-22)
(0.174425 0.0052202 1.02903e-21)
(0.171811 0.00989106 -3.16619e-22)
(0.169276 0.0140604 -5.66247e-23)
(0.166878 0.0177312 0)
(0.164659 0.020921 1.81277e-23)
(0.162646 0.0236532 2.93138e-23)
(0.160846 0.0259497 -9.41717e-22)
(0.15928 0.027847 9.04777e-22)
(0.158391 0.0298161 -1.84833e-22)
(0.18368 -0.0598711 0)
(0.183165 -0.0616924 -6.32315e-23)
(0.182958 -0.0633069 2.84024e-20)
(0.182964 -0.064551 -2.89534e-20)
(0.183165 -0.0653342 -2.75721e-20)
(0.183549 -0.065579 4.28192e-20)
(0.184076 -0.0652248 -1.18486e-20)
(0.18472 -0.064177 -2.88917e-23)
(0.18541 -0.0623622 -1.50494e-21)
(0.186075 -0.0597566 0)
(0.186627 -0.0563545 -4.79364e-21)
(0.186978 -0.0521848 9.08527e-21)
(0.187042 -0.0473152 -4.27979e-21)
(0.186749 -0.0418506 1.0827e-22)
(0.186049 -0.0359271 -9.99528e-20)
(0.184923 -0.0297019 9.99881e-20)
(0.183378 -0.0233407 -5.79242e-23)
(0.181453 -0.0170047 -1.05586e-21)
(0.179209 -0.0108395 1.70968e-21)
(0.176725 -0.00496619 -6.54779e-22)
(0.174084 0.000522514 0)
(0.171374 0.00556336 -5.97353e-23)
(0.168673 0.0101204 -8.22286e-23)
(0.16605 0.0141807 9.49166e-22)
(0.163562 0.0177503 -2.79198e-21)
(0.161253 0.0208486 2.04591e-21)
(0.159147 0.0235003 2.38564e-21)
(0.157255 0.0257286 -2.45363e-21)
(0.155599 0.0275725 -7.34412e-23)
(0.154618 0.0295008 0)
(0.180871 -0.0610324 0)
(0.180379 -0.0626508 -2.85961e-20)
(0.180229 -0.0640895 3.11408e-20)
(0.180292 -0.0651513 2.81263e-20)
(0.180544 -0.0657455 -3.06376e-20)
(0.180969 -0.0657984 -1.59865e-20)
(0.181528 -0.0652502 8.22318e-22)
(0.182191 -0.0639988 1.55658e-20)
(0.182882 -0.0619952 3.1606e-21)
(0.183531 -0.059216 0)
(0.184049 -0.0556616 0)
(0.18435 -0.0513668 -3.79992e-21)
(0.18435 -0.0464044 4.66493e-21)
(0.183983 -0.0408821 0)
(0.183203 -0.0349369 -1.01515e-19)
(0.181993 -0.0287243 1.01512e-19)
(0.180365 -0.0224064 0)
(0.178359 -0.0161395 7.66937e-22)
(0.176037 -0.0100631 -8.73283e-22)
(0.173476 -0.00429261 0)
(0.170762 0.00108503 0)
(0.167978 0.00601145 2.12023e-22)
(0.165202 0.0104547 -1.28257e-21)
(0.162503 0.0144053 -2.6419e-22)
(0.159938 0.0178714 1.43975e-21)
(0.157548 0.0208744 3.75461e-21)
(0.155359 0.0234399 -3.96669e-21)
(0.153382 0.0255926 -3.63083e-21)
(0.151642 0.0273741 3.72582e-21)
(0.15057 0.0292469 0)
(0.177658 -0.062091 0)
(0.177195 -0.0635073 0)
(0.177103 -0.0647719 0)
(0.177222 -0.0656507 -3.01054e-20)
(0.177526 -0.0660529 1.49008e-20)
(0.177985 -0.0659137 1.7758e-20)
(0.178577 -0.0651606 1.89088e-21)
(0.179251 -0.0637045 1.37079e-20)
(0.179938 -0.06151 -1.15071e-21)
(0.180564 -0.0585559 -1.28878e-20)
(0.181043 -0.0548489 -6.90831e-22)
(0.181289 -0.0504303 -1.2172e-21)
(0.181222 -0.0453774 -2.42507e-21)
(0.18078 -0.0398008 1.80629e-21)
(0.17992 -0.0338374 -1.01469e-19)
(0.178631 -0.0276409 1.01476e-19)
(0.176926 -0.0213694 5.96e-22)
(0.174847 -0.0151739 -4.52845e-22)
(0.172457 -0.00918799 7.2059e-23)
(0.169832 -0.00352104 -4.14141e-23)
(0.167056 0.00174534 1.33102e-21)
(0.164212 0.00655743 6.26476e-22)
(0.161375 0.010887 -1.81992e-21)
(0.158614 0.0147274 3.47376e-22)
(0.155982 0.0180889 -2.26526e-21)
(0.153523 0.0209942 -3.23432e-21)
(0.151262 0.02347 5.62322e-21)
(0.149209 0.0255418 0)
(0.147392 0.0272544 0)
(0.146234 0.0290608 0)
(0.173999 -0.0630353 -3.51651e-20)
(0.173572 -0.0642496 3.70693e-20)
(0.17354 -0.0653391 0)
(0.173717 -0.0660322 -1.71259e-20)
(0.17407 -0.0662388 1.94405e-20)
(0.174566 -0.0659019 1.60216e-20)
(0.175183 -0.0649354 -2.03866e-20)
(0.175864 -0.0632741 0)
(0.176542 -0.0608865 -1.74659e-21)
(0.17714 -0.057757 0)
(0.177574 -0.0538991 1.18458e-24)
(0.17776 -0.0493602 7.38173e-24)
(0.177624 -0.0442219 5.30654e-22)
(0.177106 -0.0385968 2.1565e-22)
(0.176169 -0.0326219 -9.97706e-20)
(0.174805 -0.0264479 9.97532e-20)
(0.173031 -0.0202288 -7.36679e-23)
(0.170889 -0.0141096 -6.58875e-23)
(0.168441 -0.008218 -4.46027e-23)
(0.165765 -0.0026573 -4.79189e-23)
(0.162941 0.00249617 0)
(0.16005 0.00719308 -2.61807e-22)
(0.157166 0.0114086 0)
(0.154356 0.0151385 2.60556e-21)
(0.151671 0.0183949 -3.26457e-21)
(0.149155 0.0212015 -3.27115e-21)
(0.146831 0.0235854 3.59408e-21)
(0.144711 0.0255732 0)
(0.142827 0.0272122 -4.88699e-21)
(0.141588 0.0289445 5.38807e-21)
(0.16985 -0.0638497 0)
(0.169464 -0.0648606 7.93793e-23)
(0.169496 -0.0657717 3.94757e-20)
(0.169734 -0.066274 -3.76991e-20)
(0.170133 -0.0662811 2.28275e-21)
(0.170667 -0.065736 -4.38791e-21)
(0.171306 -0.0645512 2.0887e-21)
(0.17199 -0.0626832 0)
(0.172653 -0.0601018 0)
(0.173218 -0.0567983 0)
(0.173602 -0.0527934 7.47915e-22)
(0.173725 -0.0481402 -4.07108e-21)
(0.173518 -0.0429244 6.41245e-21)
(0.172925 -0.0372601 -2.79722e-21)
(0.171915 -0.0312833 -9.52089e-20)
(0.170481 -0.0251416 9.62683e-20)
(0.168645 -0.0189837 -5.80404e-22)
(0.16645 -0.0129487 1.99507e-22)
(0.163957 -0.00715773 1.35801e-22)
(0.161243 -0.0017081 9.47734e-23)
(0.158385 0.00332912 2.04491e-22)
(0.155461 0.0079088 0)
(0.152545 0.0120092 0)
(0.149699 0.0156283 4.88044e-22)
(0.146975 0.0187793 -1.15204e-21)
(0.144413 0.0214868 6.49969e-22)
(0.142039 0.023778 9.49293e-21)
(0.139862 0.0256801 -8.62491e-21)
(0.137919 0.0272429 1.14264e-22)
(0.136605 0.0288961 0)
(0.165158 -0.0645108 -3.9654e-20)
(0.16482 -0.0653192 3.67752e-20)
(0.164921 -0.0660446 1.72572e-20)
(0.165223 -0.0663482 -2.00639e-20)
(0.16567 -0.0661514 -2.09894e-20)
(0.166242 -0.0653849 2.15026e-20)
(0.166899 -0.0639811 1.71719e-20)
(0.167582 -0.0619044 -1.53759e-20)
(0.168226 -0.0591297 8.31462e-21)
(0.168752 -0.0556558 -7.44689e-21)
(0.169082 -0.0515105 6.48933e-21)
(0.16914 -0.0467523 -3.37274e-21)
(0.16886 -0.0414703 -2.15348e-21)
(0.168194 -0.0357797 1.0236e-22)
(0.167114 -0.0298144 -8.98402e-20)
(0.165618 -0.0237181 8.98159e-20)
(0.163729 -0.0176338 -1.35123e-23)
(0.161492 -0.0116939 2.82408e-22)
(0.158967 -0.00601271 9.06003e-22)
(0.156228 -0.000681377 -1.15098e-21)
(0.153351 0.00423429 1.92606e-21)
(0.15041 0.00869318 -1.78375e-21)
(0.147476 0.0126764 6.14186e-21)
(0.144609 0.0161836 -5.32286e-21)
(0.141859 0.0192291 -5.24124e-21)
(0.139265 0.0218376 5.10076e-21)
(0.136851 0.024036 5.94448e-21)
(0.134629 0.0258521 -6.4668e-21)
(0.132635 0.0273374 -9.99601e-21)
(0.131255 0.028909 9.46752e-21)
(0.159866 -0.0649905 -2.64822e-21)
(0.159581 -0.0655957 -4.17239e-20)
(0.159759 -0.066125 4.59129e-20)
(0.160126 -0.0662222 0)
(0.160625 -0.0658109 -2.58748e-21)
(0.161233 -0.0648151 0)
(0.161906 -0.0631908 -2.38657e-21)
(0.162586 -0.0609051 1.68665e-20)
(0.163204 -0.0579401 -1.81368e-20)
(0.163688 -0.0543025 9.16986e-22)
(0.16396 -0.0500267 -1.59939e-21)
(0.16395 -0.0451766 -6.70044e-22)
(0.163598 -0.0398439 -2.77238e-22)
(0.162861 -0.0341437 -1.06247e-22)
(0.161717 -0.0282075 -8.10599e-20)
(0.160166 -0.0221739 8.10481e-20)
(0.158235 -0.0161793 1.40256e-23)
(0.155968 -0.0103489 -2.46254e-23)
(0.153425 -0.00478984 2.03389e-22)
(0.150677 0.00041323 0)
(0.147796 0.00519972 3.54634e-22)
(0.144855 0.00953242 5.92551e-21)
(0.141919 0.013395 -5.99907e-21)
(0.139045 0.0167885 -9.46426e-22)
(0.136284 0.0197279 0)
(0.133671 0.0222375 -9.88605e-22)
(0.131229 0.0243437 0)
(0.128971 0.0260743 -1.29901e-20)
(0.126936 0.0274821 1.35936e-20)
(0.125498 0.0289714 -7.33542e-22)
(0.153901 -0.0652529 -4.20159e-20)
(0.153682 -0.0656476 4.41215e-20)
(0.153942 -0.0659697 1.07957e-22)
(0.154377 -0.0658538 2.43654e-20)
(0.154933 -0.0652129 -4.06295e-20)
(0.155577 -0.0639857 2.42641e-20)
(0.156263 -0.0621397 2.45668e-21)
(0.156935 -0.059647 4.62859e-23)
(0.157525 -0.0564978 0)
(0.157961 -0.0527066 -9.46975e-22)
(0.158173 -0.0483147 -4.36478e-21)
(0.158094 -0.0433903 6.77488e-21)
(0.15767 -0.0380272 2.66016e-22)
(0.156866 -0.0323394 -5.52701e-22)
(0.155663 -0.0264546 -6.86419e-20)
(0.154067 -0.0205056 6.93878e-20)
(0.152105 -0.0146213 -7.89648e-23)
(0.149822 -0.00891898 8.61586e-23)
(0.147277 -0.00349803 -2.5201e-21)
(0.144536 0.00156356 2.28327e-21)
(0.141669 0.00621049 -3.66229e-22)
(0.138744 0.0104093 0)
(0.135822 0.0141461 -9.21014e-22)
(0.132959 0.0174229 9.74218e-22)
(0.130201 0.0202547 -7.65674e-21)
(0.127582 0.0226653 1.85225e-20)
(0.125125 0.0246801 -7.46602e-21)
(0.122843 0.0263263 1.73895e-22)
(0.120777 0.0276576 -1.45849e-20)
(0.119287 0.0290652 1.5506e-20)
(0.14718 -0.0652462 0)
(0.14704 -0.0654208 0)
(0.147388 -0.0655249 -2.6193e-20)
(0.147901 -0.0651849 2.12056e-20)
(0.148516 -0.0643049 0)
(0.149193 -0.0628454 -2.72184e-21)
(0.149891 -0.0607782 -2.65312e-21)
(0.150551 -0.0580836 -2.40944e-21)
(0.151108 -0.0547603 0)
(0.151493 -0.0508308 0)
(0.15164 -0.0463425 -8.46929e-22)
(0.151491 -0.0413674 2.79847e-21)
(0.150998 -0.0360001 -3.01422e-21)
(0.15013 -0.0303526 -9.81475e-23)
(0.148877 -0.0245476 -5.41615e-20)
(0.147246 -0.0187108 5.41512e-20)
(0.145267 -0.0129626 -1.28365e-23)
(0.142985 -0.0074117 8.64229e-22)
(0.140454 -0.00214923 -1.06792e-21)
(0.137739 0.00275376 0)
(0.134905 0.0072474 0)
(0.132014 0.0113019 0)
(0.129126 0.0149053 0)
(0.126291 0.0180606 -1.37645e-21)
(0.123552 0.0207823 -1.20888e-21)
(0.120943 0.0230932 0)
(0.118484 0.0250171 -1.17583e-20)
(0.116189 0.0265803 9.04672e-21)
(0.114101 0.0278366 0)
(0.112569 0.0291641 0)
(0.139603 -0.0649013 -3.16762e-21)
(0.139558 -0.0648444 0)
(0.140003 -0.0647222 0)
(0.140601 -0.0641416 0)
(0.141275 -0.06302 0)
(0.141987 -0.0613278 0)
(0.142693 -0.0590438 2.70968e-21)
(0.143336 -0.0561573 1.28929e-21)
(0.143854 -0.052676 -8.60116e-21)
(0.144183 -0.04863 2.32158e-21)
(0.144264 -0.0440721 1.46548e-20)
(0.144044 -0.0390773 -9.08225e-21)
(0.143483 -0.0337397 7.32597e-22)
(0.142559 -0.0281678 1.75475e-21)
(0.141264 -0.0224782 -3.51009e-20)
(0.139612 -0.016788 3.50546e-20)
(0.137632 -0.0112083 -8.9662e-22)
(0.135367 -0.00583813 -5.85409e-22)
(0.132871 -0.000759946 5.22033e-21)
(0.130202 0.00396254 -7.74794e-21)
(0.127422 0.00828492 -2.48128e-23)
(0.124588 0.012181 5.09636e-21)
(0.121753 0.0156407 7.84224e-22)
(0.118965 0.0186672 1.40578e-21)
(0.116264 0.0212745 0)
(0.113681 0.0234837 0)
(0.111235 0.0253166 0)
(0.10894 0.0267982 0)
(0.106841 0.0279815 0)
(0.105274 0.029231 -1.36856e-21)
(0.131047 -0.0641242 6.57088e-21)
(0.131112 -0.0638256 -2.62392e-20)
(0.131668 -0.0634616 2.72697e-20)
(0.132355 -0.0626319 0)
(0.13309 -0.0612686 -2.46913e-20)
(0.133833 -0.0593474 2.85267e-20)
(0.134543 -0.0568566 -2.33344e-20)
(0.135163 -0.0537953 1.97578e-20)
(0.135636 -0.0501802 0)
(0.135904 -0.0460483 6.58599e-21)
(0.135915 -0.0414572 -2.38418e-21)
(0.135625 -0.0364833 -8.73318e-21)
(0.135001 -0.031219 2.67934e-21)
(0.134027 -0.0257678 4.33408e-22)
(0.132703 -0.0202383 -1.19691e-20)
(0.131045 -0.0147381 1.17794e-20)
(0.129082 -0.00936739 -2.9725e-22)
(0.126856 -0.00421486 -1.66885e-21)
(0.124418 0.000646399 6.52184e-21)
(0.12182 0.00516032 1.02186e-21)
(0.119119 0.00928807 -6.1287e-21)
(0.116365 0.0130069 -8.72885e-22)
(0.113608 0.0163083 -1.58686e-20)
(0.11089 0.0191957 1.28373e-20)
(0.108248 0.0216816 -1.28001e-20)
(0.105709 0.0237852 1.4346e-20)
(0.103293 0.0255258 0)
(0.101012 0.0269263 -1.40893e-20)
(0.0989136 0.0280384 1.3641e-20)
(0.0973219 0.0292122 3.02808e-21)
(0.121356 -0.062782 2.12885e-20)
(0.121551 -0.0622303 -2.77025e-20)
(0.122228 -0.0616108 -2.41593e-20)
(0.123005 -0.0605317 2.87719e-20)
(0.1238 -0.0589299 2.9392e-20)
(0.12457 -0.0567902 -5.76788e-20)
(0.125276 -0.0541116 3.96303e-20)
(0.125866 -0.0509031 -1.03298e-20)
(0.126286 -0.0471899 0)
(0.126488 -0.0430153 -7.74588e-21)
(0.126426 -0.0384402 7.00601e-21)
(0.126066 -0.0335411 -3.36581e-22)
(0.125385 -0.0284069 -7.42725e-22)
(0.124372 -0.0231341 9.10532e-22)
(0.123034 -0.0178217 1.70243e-20)
(0.121388 -0.012566 -1.69639e-20)
(0.119466 -0.00745547 -1.06915e-21)
(0.117305 -0.00256725 8.26521e-22)
(0.114952 0.00203552 -3.57014e-22)
(0.112454 0.00630476 -8.18793e-21)
(0.109861 0.0102073 7.46235e-21)
(0.107217 0.0137237 1.91237e-21)
(0.104565 0.0168469 9.2219e-21)
(0.101944 0.0195798 -2.3e-20)
(0.0993848 0.0219336 2.9508e-20)
(0.0969141 0.0239246 -1.44167e-20)
(0.0945476 0.0255693 -1.70601e-20)
(0.0922993 0.0268879 1.65141e-20)
(0.0902161 0.0279297 1.48851e-20)
(0.0886098 0.0290292 -1.87756e-20)
(0.110327 -0.06068 3.37405e-20)
(0.110674 -0.0598625 3.97957e-21)
(0.111475 -0.0589874 -4.94291e-21)
(0.112342 -0.0576629 -3.03966e-20)
(0.11319 -0.0558352 -3.45606e-21)
(0.113979 -0.0534999 5.01148e-21)
(0.114669 -0.0506667 6.59451e-23)
(0.115217 -0.0473545 0)
(0.115576 -0.0435961 0)
(0.115704 -0.0394399 -7.80354e-21)
(0.115567 -0.0349484 8.83969e-21)
(0.115141 -0.0301963 3.38981e-22)
(0.11441 -0.0252666 0)
(0.113374 -0.020247 5.20702e-23)
(0.112041 -0.0152251 5.16781e-20)
(0.110433 -0.0102839 -5.14786e-20)
(0.108579 -0.005499 -4.64651e-22)
(0.106515 -0.000934926 0)
(0.104281 0.00335574 3.59557e-22)
(0.101919 0.00733319 -7.00355e-21)
(0.0994686 0.01097 6.75107e-21)
(0.0969701 0.01425 -1.0332e-21)
(0.0944589 0.0171671 0)
(0.0919671 0.0197235 1.80799e-22)
(0.0895228 0.0219284 3.61683e-21)
(0.0871487 0.0237949 -2.29625e-21)
(0.0848583 0.0253362 1.97604e-20)
(0.0826654 0.0265691 -1.89387e-23)
(0.0806169 0.0275396 1.47921e-21)
(0.0790102 0.0285643 -1.58383e-20)
(0.0976892 -0.0575182 -3.20986e-20)
(0.0981994 -0.0564408 2.74904e-20)
(0.0991215 -0.055317 0)
(0.100069 -0.0537647 -2.78769e-20)
(0.100957 -0.0517416 3.28347e-20)
(0.101747 -0.0492541 -1.50224e-20)
(0.102406 -0.0463229 2.43517e-20)
(0.102896 -0.0429754 -1.10661e-20)
(0.103181 -0.0392509 0)
(0.10323 -0.0352009 0)
(0.103018 -0.0308875 3.41596e-21)
(0.102532 -0.0263807 -3.34014e-21)
(0.101766 -0.0217556 0)
(0.100726 -0.0170883 4.26876e-23)
(0.0994258 -0.0124529 9.31787e-20)
(0.0978879 -0.00791768 -9.3216e-20)
(0.0961399 -0.00354348 1.26274e-22)
(0.0942134 0.000618343 0)
(0.0921419 0.00452645 3.55391e-21)
(0.0899594 0.00814959 -3.41164e-21)
(0.0876985 0.011466 0)
(0.0853904 0.0144628 0)
(0.0830637 0.0171343 1.25958e-20)
(0.0807445 0.0194819 -2.34965e-20)
(0.0784558 0.0215119 9.7274e-21)
(0.0762165 0.0232342 -2.14413e-20)
(0.0740379 0.0246578 2.37581e-20)
(0.0719327 0.0257959 0)
(0.0699471 0.0266897 -2.27652e-20)
(0.0683614 0.027635 1.80358e-20)
(0.0830538 -0.0528216 -3.20588e-20)
(0.0837243 -0.0515105 3.11786e-20)
(0.0847487 -0.0501687 -3.27145e-20)
(0.0857515 -0.0484358 5.33325e-22)
(0.0866506 -0.0462816 9.26387e-22)
(0.087414 -0.0437231 4.63409e-20)
(0.0880166 -0.04079 -1.42327e-20)
(0.0884301 -0.0375171 -1.47596e-21)
(0.0886285 -0.0339475 9.46228e-21)
(0.0885925 -0.0301332 -1.73256e-20)
(0.0883101 -0.026133 7.78449e-21)
(0.0877776 -0.0220094 2.08735e-21)
(0.0869996 -0.0178263 -2.16753e-21)
(0.0859877 -0.0136458 2.71934e-22)
(0.0847596 -0.00952596 1.4266e-19)
(0.0833377 -0.00551875 -1.42017e-19)
(0.0817466 -0.00166905 -2.238e-21)
(0.0800124 0.00198589 5.72463e-21)
(0.078161 0.00541636 -3.53173e-21)
(0.0762175 0.00859981 -1.06089e-20)
(0.0742059 0.0115202 2.21306e-20)
(0.0721484 0.0141673 -1.13542e-20)