/*--------------------------------*- C++ -*----------------------------------*\
  =========                 |
  \\      /  F ield         | OpenFOAM: The Open Source CFD Toolbox
   \\    /   O peration     | Website:  https://openfoam.org
    \\  /    A nd           | Version:  12
     \\/     M anipulation  |
\*---------------------------------------------------------------------------*/
FoamFile
{
    format      ascii;
    class       volSymmTensorField;
    location    "380";
    object      UPrime2Mean;
}
// * * * * * * * * * * * * * * * * * * * * * * * * * * * * * * * * * * * * * //

dimensions      [0 2 -2 0 0 0 0];

internalField   nonuniform List<symmTensor> 
6750
(
(1.87428e-10 2.61505e-09 0 7.15329e-08 0 0)
(4.42962e-09 5.09647e-08 0 1.0078e-06 0 0)
(1.43729e-08 1.72409e-07 0 3.23387e-06 0 0)
(2.66973e-08 3.51046e-07 0 6.77968e-06 0 0)
(6.32169e-08 7.50707e-07 0 1.153e-05 0 0)
(1.65151e-11 2.65792e-10 0 5.39529e-08 0 0)
(7.92209e-10 2.06612e-08 0 8.42065e-07 0 0)
(5.47977e-09 1.03272e-07 0 2.76107e-06 0 0)
(1.88856e-08 2.89065e-07 0 5.78161e-06 0 0)
(5.03071e-08 6.30471e-07 0 9.71141e-06 0 0)
(1.36382e-11 2.91121e-10 0 4.90551e-08 0 0)
(6.15337e-10 2.01365e-08 0 7.66548e-07 0 0)
(5.5374e-09 1.09533e-07 0 2.48087e-06 0 0)
(2.1654e-08 3.12457e-07 0 5.08188e-06 0 0)
(5.64371e-08 6.47266e-07 0 8.28978e-06 0 0)
(1.16456e-11 2.67548e-10 0 4.29164e-08 0 0)
(8.77982e-10 2.36657e-08 0 6.76365e-07 0 0)
(7.49923e-09 1.24154e-07 0 2.16597e-06 0 0)
(2.75458e-08 3.38192e-07 0 4.37442e-06 0 0)
(6.65324e-08 6.66023e-07 0 7.03609e-06 0 0)
(8.93213e-12 2.07201e-10 0 3.60581e-08 0 0)
(1.17291e-09 2.56955e-08 0 5.78274e-07 0 0)
(9.70789e-09 1.32418e-07 0 1.84553e-06 0 0)
(3.39805e-08 3.50812e-07 0 3.70188e-06 0 0)
(7.82452e-08 6.72477e-07 0 5.91704e-06 0 0)
(6.13571e-12 1.18601e-10 0 2.93258e-08 0 0)
(1.40046e-09 2.57832e-08 0 4.80288e-07 0 0)
(1.17327e-08 1.33663e-07 0 1.53454e-06 0 0)
(4.04241e-08 3.5095e-07 0 3.07012e-06 0 0)
(9.14315e-08 6.66191e-07 0 4.89393e-06 0 0)
(4.86558e-12 2.94855e-11 0 2.31524e-08 0 0)
(1.57126e-09 2.45965e-08 0 3.87069e-07 0 0)
(1.36301e-08 1.29919e-07 0 1.24073e-06 0 0)
(4.71099e-08 3.41606e-07 0 2.48124e-06 0 0)
(1.06421e-07 6.47883e-07 0 3.95108e-06 0 0)
(5.99206e-12 -4.11029e-11 0 1.7701e-08 0 0)
(1.7177e-09 2.26842e-08 0 3.01309e-07 0 0)
(1.55126e-08 1.22582e-07 0 9.69593e-07 0 0)
(5.41892e-08 3.24144e-07 0 1.94e-06 0 0)
(1.23133e-07 6.16541e-07 0 3.08828e-06 0 0)
(9.53008e-12 -8.69888e-11 0 1.3011e-08 0 0)
(1.8589e-09 2.03222e-08 0 2.24773e-07 0 0)
(1.74054e-08 1.1225e-07 0 7.26033e-07 0 0)
(6.15235e-08 2.98774e-07 0 1.45391e-06 0 0)
(1.409e-07 5.70561e-07 0 2.31449e-06 0 0)
(1.48902e-11 -1.09217e-10 0 9.07983e-09 0 0)
(1.99859e-09 1.76281e-08 0 1.58728e-07 0 0)
(1.92526e-08 9.92074e-08 0 5.14431e-07 0 0)
(6.87536e-08 2.65622e-07 0 1.03108e-06 0 0)
(1.58645e-07 5.09225e-07 0 1.64158e-06 0 0)
(2.11363e-11 -1.11828e-10 0 5.89447e-09 0 0)
(2.13089e-09 1.46647e-08 0 1.04052e-07 0 0)
(2.0956e-08 8.37725e-08 0 3.38244e-07 0 0)
(7.54195e-08 2.25346e-07 0 6.78518e-07 0 0)
(1.75116e-07 4.33428e-07 0 1.08042e-06 0 0)
(2.72588e-11 -9.95482e-11 0 3.43605e-09 0 0)
(2.24491e-09 1.14902e-08 0 6.1189e-08 0 0)
(2.24066e-08 6.64151e-08 0 1.99504e-07 0 0)
(8.10826e-08 1.7928e-07 0 4.00531e-07 0 0)
(1.89166e-07 3.457e-07 0 6.3787e-07 0 0)
(3.22185e-11 -7.61806e-11 0 1.67503e-09 0 0)
(2.32691e-09 8.17776e-09 0 3.01232e-08 0 0)
(2.35089e-08 4.77579e-08 0 9.85779e-08 0 0)
(8.54012e-08 1.29256e-07 0 1.98069e-07 0 0)
(1.99943e-07 2.49708e-07 0 3.15479e-07 0 0)
(3.42737e-11 -4.36859e-11 0 5.6736e-10 0 0)
(2.35739e-09 4.81884e-09 0 1.03825e-08 0 0)
(2.41965e-08 2.85083e-08 0 3.4183e-08 0 0)
(8.81802e-08 7.73273e-08 0 6.8738e-08 0 0)
(2.0699e-07 1.496e-07 0 1.095e-07 0 0)
(3.00584e-11 -1.06665e-11 0 6.12703e-11 0 0)
(2.29281e-09 1.52787e-09 0 1.07969e-09 0 0)
(2.44505e-08 9.35589e-09 0 3.64456e-09 0 0)
(8.94196e-08 2.54858e-08 0 7.36161e-09 0 0)
(2.10292e-07 4.93995e-08 0 1.17485e-08 0 0)
(3.01003e-11 8.21101e-12 0 7.63987e-11 0 0)
(2.29322e-09 -1.57603e-09 0 1.15263e-09 0 0)
(2.44497e-08 -9.52512e-09 0 3.79237e-09 0 0)
(8.94168e-08 -2.57952e-08 0 7.57007e-09 0 0)
(2.10284e-07 -4.98457e-08 0 1.2005e-08 0 0)
(3.42154e-11 4.20767e-11 0 6.12901e-10 0 0)
(2.35638e-09 -4.86728e-09 0 1.06079e-08 0 0)
(2.41929e-08 -2.86757e-08 0 3.46332e-08 0 0)
(8.81701e-08 -7.76315e-08 0 6.93709e-08 0 0)
(2.06964e-07 -1.50036e-07 0 1.10278e-07 0 0)
(3.20928e-11 7.52964e-11 0 1.75144e-09 0 0)
(2.32488e-09 -8.22357e-09 0 3.05056e-08 0 0)
(2.35023e-08 -4.79189e-08 0 9.93391e-08 0 0)
(8.53835e-08 -1.29547e-07 0 1.99137e-07 0 0)
(1.99899e-07 -2.50119e-07 0 3.16789e-07 0 0)
(2.71075e-11 9.95942e-11 0 3.54171e-09 0 0)
(2.24214e-09 -1.15313e-08 0 6.173e-08 0 0)
(2.23977e-08 -6.65656e-08 0 2.00579e-07 0 0)
(8.10593e-08 -1.79552e-07 0 4.02034e-07 0 0)
(1.89107e-07 -3.46073e-07 0 6.3971e-07 0 0)
(2.09987e-11 1.13009e-10 0 6.02643e-09 0 0)
(2.12781e-09 -1.46998e-08 0 1.0475e-07 0 0)
(2.09462e-08 -8.39101e-08 0 3.39632e-07 0 0)
(7.53931e-08 -2.25593e-07 0 6.8045e-07 0 0)
(1.75045e-07 -4.33753e-07 0 1.08278e-06 0 0)
(1.48075e-11 1.11583e-10 0 9.23401e-09 0 0)
(1.99555e-09 -1.76565e-08 0 1.59581e-07 0 0)
(1.92428e-08 -9.93312e-08 0 5.16128e-07 0 0)
(6.8726e-08 -2.65841e-07 0 1.03343e-06 0 0)
(1.58561e-07 -5.09488e-07 0 1.64442e-06 0 0)
(9.54341e-12 9.04938e-11 0 1.31824e-08 0 0)
(1.85589e-09 -2.03414e-08 0 2.25774e-07 0 0)
(1.73945e-08 -1.12353e-07 0 7.28029e-07 0 0)
(6.14942e-08 -2.98956e-07 0 1.45664e-06 0 0)
(1.4081e-07 -5.70752e-07 0 2.31773e-06 0 0)
(6.12585e-12 4.56927e-11 0 1.78834e-08 0 0)
(1.7141e-09 -2.26878e-08 0 3.02442e-07 0 0)
(1.54967e-08 -1.22644e-07 0 9.7187e-07 0 0)
(5.41501e-08 -3.24259e-07 0 1.94308e-06 0 0)
(1.23039e-07 -6.16657e-07 0 3.09186e-06 0 0)
(5.11112e-12 -2.41622e-11 0 2.33386e-08 0 0)
(1.56738e-09 -2.45837e-08 0 3.88307e-07 0 0)
(1.36113e-08 -1.29937e-07 0 1.24327e-06 0 0)
(4.70701e-08 -3.41681e-07 0 2.48477e-06 0 0)
(1.06329e-07 -6.47977e-07 0 3.95542e-06 0 0)
(6.46599e-12 -1.13298e-10 0 2.95101e-08 0 0)
(1.39726e-09 -2.57613e-08 0 4.81609e-07 0 0)
(1.17174e-08 -1.33668e-07 0 1.53732e-06 0 0)
(4.03976e-08 -3.51044e-07 0 3.07412e-06 0 0)
(9.13587e-08 -6.66316e-07 0 4.89902e-06 0 0)
(9.30252e-12 -2.02291e-10 0 3.62372e-08 0 0)
(1.17033e-09 -2.5666e-08 0 5.79663e-07 0 0)
(9.6952e-09 -1.32411e-07 0 1.84859e-06 0 0)
(3.39595e-08 -3.5091e-07 0 3.70647e-06 0 0)
(7.81785e-08 -6.72602e-07 0 5.92312e-06 0 0)
(1.19934e-11 -2.63483e-10 0 4.30879e-08 0 0)
(8.75971e-10 -2.36321e-08 0 6.77805e-07 0 0)
(7.48913e-09 -1.24141e-07 0 2.1693e-06 0 0)
(2.75303e-08 -3.38313e-07 0 4.37974e-06 0 0)
(6.64702e-08 -6.66132e-07 0 7.04336e-06 0 0)
(1.38806e-11 -2.87973e-10 0 4.9218e-08 0 0)
(6.13327e-10 -2.01e-08 0 7.68016e-07 0 0)
(5.52822e-09 -1.09513e-07 0 2.48444e-06 0 0)
(2.1636e-08 -3.1255e-07 0 5.08793e-06 0 0)
(5.63714e-08 -6.47253e-07 0 8.29849e-06 0 0)
(1.66056e-11 -2.64051e-10 0 5.41054e-08 0 0)
(7.89362e-10 -2.06292e-08 0 8.4353e-07 0 0)
(5.4694e-09 -1.03249e-07 0 2.76483e-06 0 0)
(1.88636e-08 -2.89115e-07 0 5.78836e-06 0 0)
(5.02419e-08 -6.3024e-07 0 9.72171e-06 0 0)
(1.87054e-10 -2.61339e-09 0 7.16739e-08 0 0)
(4.42273e-09 -5.09273e-08 0 1.00919e-06 0 0)
(1.43553e-08 -1.72336e-07 0 3.23763e-06 0 0)
(2.66663e-08 -3.50866e-07 0 6.78678e-06 0 0)
(6.31418e-08 -7.50037e-07 0 1.15413e-05 0 0)
(6.70457e-07 4.1513e-06 0 2.80381e-05 0 0)
(1.56211e-06 7.62372e-06 0 3.96028e-05 0 0)
(2.74592e-06 1.16835e-05 0 5.2303e-05 0 0)
(4.02516e-06 1.58786e-05 -3.75186e-25 6.55353e-05 -9.91791e-25 7.39277e-43)
(5.36189e-06 2.00989e-05 0 7.85421e-05 0 0)
(6.71974e-06 2.42096e-05 0 9.06836e-05 0 0)
(8.0507e-06 2.80464e-05 3.8343e-23 0.000101373 1.01786e-22 2.85727e-39)
(9.32068e-06 3.14633e-05 -4.2309e-23 0.000110027 -1.11197e-22 2.90758e-39)
(1.04814e-05 3.42971e-05 -3.58813e-25 0.000116067 -9.37298e-25 1.6351e-43)
(1.15894e-05 3.66148e-05 -2.49246e-23 0.000119422 -6.45232e-23 6.17847e-40)
(1.25879e-05 3.82461e-05 4.97588e-26 0.000119636 -4.66456e-26 1.24477e-42)
(1.34985e-05 3.90827e-05 1.32035e-25 0.000116096 1.97982e-25 1.46838e-42)
(1.4334e-05 3.91954e-05 1.47496e-23 0.000109428 3.57183e-23 1.4718e-40)
(1.51129e-05 3.86121e-05 1.51101e-23 0.00010011 3.54867e-23 1.20502e-40)
(1.58563e-05 3.73739e-05 3.63348e-23 8.88373e-05 8.22098e-23 5.42005e-40)
(1.65841e-05 3.55224e-05 -3.73756e-23 7.64414e-05 -8.09986e-23 5.42107e-40)
(1.73205e-05 3.31001e-05 1.54245e-23 6.37949e-05 3.17547e-23 7.28041e-41)
(1.80903e-05 3.0142e-05 1.47554e-23 5.1698e-05 2.85965e-23 5.26254e-41)
(1.89202e-05 2.66897e-05 -7.91429e-25 4.08321e-05 -1.46012e-24 1.56348e-42)
(1.98448e-05 2.28003e-05 -8.54803e-25 3.16977e-05 -1.41684e-24 1.35546e-42)
(2.09324e-05 1.85641e-05 -3.03171e-23 2.4579e-05 -4.54803e-23 1.8557e-40)
(2.2191e-05 1.39761e-05 4.66547e-25 1.93935e-05 6.10831e-25 3.74501e-44)
(2.3583e-05 9.13273e-06 -5.71145e-23 1.61722e-05 -6.4607e-23 4.88852e-40)
(2.51102e-05 4.15104e-06 5.80866e-23 1.47243e-05 5.41127e-23 4.80236e-40)
(2.67568e-05 -8.57721e-07 0 1.47516e-05 0 0)
(2.8487e-05 -5.78899e-06 0 1.59094e-05 0 0)
(3.02558e-05 -1.05465e-05 8.93027e-25 1.78508e-05 3.03e-25 7.92048e-44)
(3.20391e-05 -1.50338e-05 0 2.02576e-05 0 0)
(3.38832e-05 -1.91323e-05 0 2.28321e-05 0 0)
(3.55765e-05 -2.27151e-05 0 2.52488e-05 0 0)
(1.04844e-06 5.72002e-06 0 3.36496e-05 0 0)
(2.05603e-06 9.45378e-06 0 4.60649e-05 0 0)
(3.22445e-06 1.34032e-05 0 5.85431e-05 0 0)
(4.47192e-06 1.74164e-05 3.74736e-25 7.09477e-05 9.84743e-25 6.57588e-43)
(5.78509e-06 2.14372e-05 0 8.28196e-05 0 0)
(7.12309e-06 2.53288e-05 0 9.36738e-05 0 0)
(8.445e-06 2.89465e-05 -3.67781e-23 0.00010301 -9.56144e-23 2.46996e-39)
(9.72516e-06 3.21679e-05 4.10837e-23 0.000110332 1.05142e-22 2.58665e-39)
(1.09246e-05 3.48594e-05 3.45096e-25 0.000115177 8.74422e-25 1.44131e-43)
(1.21029e-05 3.71126e-05 0 0.000117644 0 0)
(1.31928e-05 3.86998e-05 0 0.000117053 0 0)
(1.42379e-05 3.96022e-05 2.65475e-23 0.000113197 6.31281e-23 4.54708e-40)
(1.52225e-05 3.9836e-05 -2.79075e-23 0.000106613 -6.42915e-23 4.57573e-40)
(1.6159e-05 3.9417e-05 0 9.77335e-05 0 0)
(1.70551e-05 3.83652e-05 1.01898e-22 8.71658e-05 2.19102e-22 3.99964e-39)
(1.79171e-05 3.67029e-05 -1.05037e-22 7.56189e-05 -2.16645e-22 3.9971e-39)
(1.87564e-05 3.44581e-05 0 6.38257e-05 0 0)
(1.9591e-05 3.16649e-05 -2.99583e-23 5.24755e-05 -5.57007e-23 2.22704e-40)
(2.04453e-05 2.83652e-05 3.06577e-23 4.21486e-05 5.34949e-23 2.24903e-40)
(2.13551e-05 2.46204e-05 0 3.32906e-05 0 0)
(2.23496e-05 2.04907e-05 0 2.61683e-05 0 0)
(2.3469e-05 1.60207e-05 -4.53567e-25 2.07935e-05 -5.96859e-25 3.29542e-44)
(2.47232e-05 1.1308e-05 5.64863e-23 1.71982e-05 6.40505e-23 4.4179e-40)
(2.60908e-05 6.4407e-06 -5.81647e-23 1.52551e-05 -5.55142e-23 4.49154e-40)
(2.75655e-05 1.52446e-06 0 1.47419e-05 0 0)
(2.91247e-05 -3.3417e-06 0 1.53781e-05 0 0)
(3.07291e-05 -8.07057e-06 -8.50715e-25 1.6864e-05 -3.6664e-25 7.02622e-44)
(3.23398e-05 -1.25858e-05 0 1.89125e-05 0 0)
(3.39919e-05 -1.68177e-05 0 2.12692e-05 0 0)
(3.56287e-05 -2.08194e-05 0 2.37762e-05 0 0)
(1.45769e-06 7.20267e-06 0 3.8054e-05 0 0)
(2.44796e-06 1.076e-05 0 4.99706e-05 0 0)
(3.6045e-06 1.45622e-05 0 6.17424e-05 0 0)
(4.86855e-06 1.84866e-05 -2.53962e-23 7.337e-05 -6.58773e-23 2.66913e-39)
(6.20772e-06 2.24231e-05 2.95189e-23 8.4418e-05 7.53935e-23 2.73211e-39)
(7.58303e-06 2.62336e-05 -3.49503e-23 9.44086e-05 -8.86727e-23 2.74078e-39)
(8.96776e-06 2.97966e-05 3.90931e-23 0.000102865 9.72992e-23 2.79257e-39)
(1.0343e-05 3.3003e-05 -6.83031e-25 0.000109344 -1.67605e-24 6.48742e-43)
(1.16852e-05 3.57503e-05 0 0.000113474 0 0)
(1.30468e-05 3.81183e-05 0 0.000115402 0 0)
(1.43617e-05 3.985e-05 8.49386e-25 0.000114343 1.92673e-24 5.37601e-43)
(1.56752e-05 4.09675e-05 0 0.000110381 0 0)
(1.69504e-05 4.14397e-05 0 0.000103953 0 0)
(1.81873e-05 4.12622e-05 2.48636e-25 9.54638e-05 5.08236e-25 2.60747e-44)
(1.93743e-05 4.04299e-05 1.83706e-22 8.54637e-05 3.61606e-22 1.13773e-38)
(2.04984e-05 3.89448e-05 -1.90123e-22 7.45811e-05 -3.58492e-22 1.1377e-38)
(2.15531e-05 3.68207e-05 -2.6798e-25 6.34609e-05 -4.82676e-25 1.87349e-44)
(2.25428e-05 3.40864e-05 0 5.27061e-05 0 0)
(2.34857e-05 3.07879e-05 0 4.28311e-05 0 0)
(2.44151e-05 2.69907e-05 -1.07548e-24 3.42303e-05 -1.60896e-24 2.04557e-43)
(2.53706e-05 2.27714e-05 0 2.71556e-05 0 0)
(2.63909e-05 1.82194e-05 0 2.17302e-05 0 0)
(2.74966e-05 1.34132e-05 1.02645e-24 1.79312e-05 1.12018e-24 1.32697e-43)
(2.86918e-05 8.45404e-06 6.45219e-23 1.56763e-05 5.9938e-23 4.63281e-40)
(2.9977e-05 3.44814e-06 -6.50578e-23 1.47944e-05 -4.99431e-23 4.5469e-40)
(3.13413e-05 -1.50516e-06 6.47311e-23 1.50533e-05 3.91587e-23 3.90955e-40)
(3.2762e-05 -6.31736e-06 -6.54137e-23 1.61924e-05 -2.90239e-23 3.81241e-40)
(3.42061e-05 -1.09104e-05 0 1.7947e-05 0 0)
(3.56541e-05 -1.52148e-05 0 2.00725e-05 0 0)
(3.68573e-05 -1.93522e-05 0 2.24907e-05 0 0)
(1.86216e-06 8.60741e-06 0 4.22077e-05 0 0)
(2.83966e-06 1.20359e-05 3.79814e-23 5.36486e-05 1.00663e-22 1.23813e-38)
(4.02685e-06 1.57937e-05 -2.32647e-23 6.48073e-05 -5.9754e-23 3.26756e-39)
(5.34218e-06 1.96907e-05 -5.69522e-23 7.56982e-05 -1.44555e-22 1.28794e-38)
(6.74582e-06 2.35943e-05 6.64061e-23 8.59064e-05 1.65394e-22 1.27234e-38)
(8.21258e-06 2.73889e-05 -3.73096e-23 9.49906e-05 -9.07989e-23 3.09025e-39)
(9.72945e-06 3.09745e-05 0 0.000102523 0 0)
(1.12777e-05 3.42429e-05 -1.44487e-24 0.000108121 -3.32829e-24 2.74626e-42)
(1.28751e-05 3.71624e-05 0 0.000111559 0 0)
(1.45158e-05 3.97022e-05 0 0.000112877 0 0)
(1.61826e-05 4.16669e-05 -3.2179e-23 0.000111373 -6.71953e-23 6.52809e-40)
(1.78891e-05 4.30614e-05 3.25719e-23 0.000107321 6.50248e-23 5.82177e-40)
(1.9588e-05 4.38245e-05 0 0.00010106 0 0)
(2.12601e-05 4.39292e-05 -2.85181e-25 9.29752e-05 -5.25721e-25 2.87402e-44)
(2.2869e-05 4.3345e-05 2.83257e-22 8.35597e-05 5.01038e-22 2.28284e-38)
(2.43768e-05 4.20534e-05 -2.94353e-22 7.3364e-05 -4.97899e-22 2.28274e-38)
(2.57544e-05 4.00539e-05 3.1054e-25 6.29454e-05 5.02285e-25 2.06497e-44)
(2.69897e-05 3.73693e-05 0 5.28245e-05 0 0)
(2.80917e-05 3.40477e-05 3.98036e-23 4.34499e-05 5.78683e-23 2.49775e-40)
(2.90917e-05 3.01626e-05 -3.7692e-23 3.51743e-05 -5.14368e-23 2.18399e-40)
(3.00368e-05 2.5806e-05 -1.23634e-24 2.82383e-05 -1.55613e-24 2.01852e-43)
(3.09744e-05 2.10792e-05 0 2.27697e-05 0 0)
(3.19399e-05 1.60836e-05 2.40334e-24 1.87894e-05 2.44891e-24 6.25384e-43)
(3.29568e-05 1.09302e-05 0 1.62432e-05 0 0)
(3.40385e-05 5.73013e-06 -7.30227e-23 1.50024e-05 -5.46824e-23 4.6923e-40)
(3.51852e-05 5.86044e-07 1.4264e-22 1.48798e-05 8.65256e-23 1.70043e-39)
(3.63908e-05 -4.41092e-06 -1.40195e-22 1.56535e-05 -6.50133e-23 1.5209e-39)
(3.76436e-05 -9.17943e-06 -6.7856e-23 1.70879e-05 -2.2032e-23 3.1419e-40)
(3.88999e-05 -1.36497e-05 1.39534e-22 1.89546e-05 2.63183e-23 1.32241e-39)
(3.95857e-05 -1.80191e-05 0 2.12423e-05 0 0)
(2.30523e-06 1.00697e-05 0 4.62859e-05 0 0)
(3.31231e-06 1.34606e-05 -4.2868e-23 5.71998e-05 -1.125e-22 1.42387e-38)
(4.5652e-06 1.72167e-05 5.07275e-23 6.7665e-05 1.28703e-22 1.37636e-38)
(5.96524e-06 2.111e-05 0 7.77198e-05 0 0)
(7.4805e-06 2.50186e-05 0 8.69944e-05 0 0)
(9.10163e-06 2.88496e-05 -1.25457e-24 9.50927e-05 -2.89059e-24 3.17271e-42)
(1.08259e-05 3.25144e-05 0 0.000101643 0 0)
(1.2639e-05 3.59082e-05 1.61091e-24 0.000106321 3.45475e-24 3.01633e-42)
(1.4583e-05 3.9043e-05 -2.8314e-23 0.000109062 -5.81329e-23 7.08228e-40)
(1.66198e-05 4.18004e-05 3.1239e-23 0.000109724 6.12094e-23 7.18981e-40)
(1.87646e-05 4.40431e-05 3.50676e-23 0.000107827 6.59306e-23 6.67512e-40)
(2.09943e-05 4.57399e-05 -3.68231e-23 0.000103706 -6.5703e-23 6.32896e-40)
(2.32557e-05 4.68176e-05 -1.22095e-24 9.76535e-05 -2.08381e-24 5.45144e-43)
(2.55031e-05 4.72244e-05 6.46371e-25 9.00256e-05 1.05571e-24 1.24775e-43)
(2.76698e-05 4.69076e-05 4.05493e-22 8.12571e-05 6.35822e-22 3.86321e-38)
(2.96874e-05 4.58293e-05 -4.2287e-22 7.18189e-05 -6.33692e-22 3.86301e-38)
(3.14994e-05 4.39748e-05 -7.18932e-25 6.21801e-05 -1.03259e-24 9.15699e-44)
(3.3073e-05 4.13584e-05 1.45893e-24 5.27765e-05 2.00061e-24 3.26432e-43)
(3.44063e-05 3.80268e-05 -4.66241e-23 4.39872e-05 -6.06815e-23 2.78922e-40)
(3.55282e-05 3.40576e-05 4.55847e-23 3.61189e-05 5.60417e-23 2.59786e-40)
(3.64922e-05 2.95531e-05 4.73599e-23 2.93937e-05 5.41358e-23 2.3133e-40)
(3.73598e-05 2.46276e-05 -4.5921e-23 2.39439e-05 -4.84188e-23 2.14141e-40)
(3.8186e-05 1.94018e-05 -2.78277e-24 1.98207e-05 -2.65147e-24 6.86858e-43)
(3.90139e-05 1.39994e-05 0 1.70037e-05 0 0)
(3.98728e-05 8.54047e-06 2.69934e-24 1.54061e-05 1.93986e-24 5.54794e-43)
(4.07756e-05 3.13432e-06 0 1.48858e-05 0 0)
(4.17299e-05 -2.12168e-06 0 1.52624e-05 0 0)
(4.2748e-05 -7.13924e-06 1.59082e-22 1.63341e-05 5.60046e-23 1.53981e-39)
(4.37851e-05 -1.18476e-05 -1.54011e-22 1.78926e-05 -3.55607e-23 1.40612e-39)
(4.39071e-05 -1.65643e-05 0 1.99828e-05 0 0)
(2.83741e-06 1.16747e-05 -3.77264e-23 5.01527e-05 -9.51676e-23 1.40041e-38)
(3.92325e-06 1.50932e-05 7.01362e-23 6.03806e-05 1.79373e-22 3.45096e-38)
(5.28086e-06 1.88728e-05 -2.77497e-23 7.00323e-05 -6.7972e-23 3.72298e-39)
(6.81225e-06 2.27906e-05 0 7.9154e-05 0 0)
(8.49951e-06 2.67433e-05 -3.86222e-23 8.74217e-05 -8.70225e-23 3.52938e-39)
(1.03476e-05 3.06523e-05 4.30439e-23 9.44818e-05 9.22936e-23 3.39572e-39)
(1.23629e-05 3.44349e-05 -4.89905e-23 0.00010002 -1.00426e-22 3.14247e-39)
(1.45368e-05 3.79901e-05 5.6698e-23 0.000103779 1.09853e-22 3.41432e-39)
(1.69339e-05 4.1361e-05 0 0.000105818 0 0)
(1.94925e-05 4.4353e-05 2.17798e-24 0.000105828 3.80718e-24 2.93652e-42)
(2.22466e-05 4.68827e-05 -3.85088e-23 0.000103599 -6.42034e-23 6.82713e-40)
(2.51406e-05 4.88844e-05 2.10255e-23 9.94577e-05 3.28859e-23 1.869e-40)
(2.81112e-05 5.02775e-05 2.89652e-24 9.3669e-05 4.15726e-24 4.4799e-42)
(3.10802e-05 5.09892e-05 2.32426e-23 8.65574e-05 3.3308e-23 1.38149e-40)
(3.39456e-05 5.09484e-05 5.54226e-22 7.8499e-05 7.64591e-22 5.91613e-38)
(3.66025e-05 5.01003e-05 -5.79532e-22 6.98865e-05 -7.6476e-22 5.9156e-38)
(3.8962e-05 4.84158e-05 2.76121e-23 6.11018e-05 3.50593e-23 1.0433e-40)
(4.09669e-05 4.58985e-05 -3.66417e-24 5.24962e-05 -4.46123e-24 3.09194e-42)
(4.26021e-05 4.25893e-05 2.70786e-23 4.43777e-05 3.13865e-23 6.92188e-41)
(4.3895e-05 3.85654e-05 -5.52013e-23 3.70033e-05 -6.0922e-23 3.07172e-40)
(4.49064e-05 3.39337e-05 -3.40869e-24 3.05709e-05 -3.52804e-24 1.01022e-42)
(4.57146e-05 2.88198e-05 0 2.52146e-05 0 0)
(4.6397e-05 2.33585e-05 1.04316e-22 2.10061e-05 9.15932e-23 7.63592e-40)
(4.70198e-05 1.76865e-05 -1.06792e-22 1.7957e-05 -8.4435e-23 7.9542e-40)
(4.76318e-05 1.1935e-05 1.02672e-22 1.60215e-05 7.08634e-23 6.43919e-40)
(4.82611e-05 6.22261e-06 -9.86105e-23 1.51016e-05 -5.81217e-23 5.89772e-40)
(4.89291e-05 6.5601e-07 -6.00752e-24 1.50601e-05 -2.87018e-24 1.99788e-42)
(4.96701e-05 -4.66511e-06 -9.2083e-23 1.57327e-05 -3.44403e-23 4.34921e-40)
(5.04492e-05 -9.66318e-06 2.67577e-22 1.69366e-05 7.08264e-23 3.50137e-39)
(4.99567e-05 -1.48161e-05 -1.86839e-22 1.87456e-05 -2.75447e-23 1.69297e-39)
(3.51316e-06 1.34785e-05 2.03168e-23 5.36252e-05 4.98311e-23 3.54846e-39)
(4.73448e-06 1.69755e-05 -2.69907e-23 6.30031e-05 -6.58681e-23 4.53016e-39)
(6.24716e-06 2.0805e-05 -3.26022e-23 7.17401e-05 -7.55514e-23 4.40922e-39)
(7.96992e-06 2.47761e-05 3.86829e-23 7.98552e-05 8.46328e-23 4.52931e-39)
(9.90129e-06 2.88027e-05 -4.26676e-23 8.7058e-05 -8.85343e-23 3.81954e-39)
(1.20593e-05 3.2814e-05 5.23711e-23 9.30457e-05 1.02161e-22 4.41607e-39)
(1.44591e-05 3.67302e-05 1.71495e-24 9.75616e-05 3.12129e-24 3.59966e-42)
(1.7105e-05 4.04641e-05 0 0.000100429 0 0)
(2.00718e-05 4.40608e-05 -3.56624e-23 0.000101762 -5.8389e-23 8.36565e-40)
(2.32889e-05 4.72793e-05 -2.45408e-24 0.000101163 -4.2076e-24 8.12059e-43)
(2.67926e-05 5.00787e-05 -2.66646e-24 9.8672e-05 -4.33676e-24 6.86302e-43)
(3.05013e-05 5.23673e-05 4.93818e-23 9.45712e-05 6.79125e-23 8.00069e-40)
(3.43336e-05 5.40594e-05 2.41719e-23 8.91067e-05 3.18815e-23 1.40309e-40)
(3.81741e-05 5.50667e-05 -4.13772e-23 8.25705e-05 -5.19526e-23 3.5133e-40)
(4.18797e-05 5.53044e-05 7.45218e-22 7.52803e-05 9.01484e-22 8.80196e-38)
(4.5304e-05 5.47032e-05 -7.50234e-22 6.75529e-05 -8.70265e-22 8.13043e-38)
(4.8321e-05 5.32193e-05 -4.68413e-23 5.96861e-05 -5.2497e-23 2.51907e-40)
(5.08462e-05 5.08435e-05 3.59633e-23 5.19495e-05 3.88167e-23 1.35225e-40)
(5.28501e-05 4.76066e-05 6.40243e-23 4.45809e-05 6.63396e-23 3.44111e-40)
(5.43583e-05 4.35798e-05 3.41093e-24 3.77854e-05 3.21232e-24 4.8726e-43)
(5.54419e-05 3.88696e-05 3.29374e-24 3.17324e-05 2.88377e-24 4.54319e-43)
(5.6198e-05 3.36072e-05 -6.32169e-23 2.65511e-05 -5.5751e-23 2.6725e-40)
(5.67291e-05 2.79373e-05 0 2.2327e-05 0 0)
(5.71274e-05 2.20081e-05 -3.829e-24 1.91e-05 -2.80747e-24 8.05617e-43)
(5.74651e-05 1.5962e-05 1.09236e-22 1.68616e-05 7.19188e-23 5.96298e-40)
(5.77889e-05 9.92821e-06 -1.15072e-22 1.55559e-05 -6.61485e-23 6.63253e-40)
(5.81361e-05 4.02428e-06 1.09919e-22 1.50895e-05 5.31554e-23 5.43192e-40)
(5.8562e-05 -1.63458e-06 -1.01892e-22 1.53374e-05 -3.99181e-23 4.65599e-40)
(5.90461e-05 -6.95939e-06 -9.87913e-23 1.61475e-05 -2.89983e-23 3.9227e-40)
(5.78946e-05 -1.26187e-05 1.10967e-22 1.75916e-05 2.10936e-23 5.04883e-40)
(4.39956e-06 1.55271e-05 0 5.65273e-05 0 0)
(5.82322e-06 1.9141e-05 -2.66063e-23 6.49174e-05 -6.0567e-23 3.71091e-39)
(7.55255e-06 2.30408e-05 3.8514e-23 7.26616e-05 8.2039e-23 5.51426e-39)
(9.5388e-06 2.70838e-05 -4.32023e-23 7.97118e-05 -8.63823e-23 4.74134e-39)
(1.17978e-05 3.11968e-05 4.75946e-23 8.58097e-05 8.86545e-23 4.31405e-39)
(1.43606e-05 3.53141e-05 -5.1731e-23 9.07077e-05 -9.03642e-23 3.56164e-39)
(1.72487e-05 3.93555e-05 5.91616e-23 9.42102e-05 9.58942e-23 3.65704e-39)
(2.05013e-05 4.32728e-05 4.43833e-24 9.62352e-05 6.71668e-24 1.52978e-41)
(2.41577e-05 4.70461e-05 2.50446e-24 9.68566e-05 3.55758e-24 3.67446e-42)
(2.81822e-05 5.04645e-05 2.80112e-24 9.57285e-05 3.74399e-24 3.501e-42)
(3.25841e-05 5.34969e-05 3.14035e-24 9.30539e-05 3.97847e-24 3.31788e-42)
(3.7264e-05 5.60392e-05 -1.71715e-24 8.90615e-05 -2.06188e-24 7.75432e-43)
(4.21131e-05 5.80026e-05 3.13895e-23 8.39848e-05 3.60275e-23 1.98737e-40)
(4.69738e-05 5.92906e-05 -1.58665e-23 7.80816e-05 -1.72192e-23 4.82896e-41)
(5.16569e-05 5.98086e-05 9.20439e-22 7.16124e-05 9.76055e-22 1.10827e-37)
(5.59696e-05 5.9475e-05 -1.00007e-21 6.48215e-05 -1.0209e-21 1.19033e-37)
(5.97457e-05 5.82315e-05 -1.79606e-23 5.79271e-05 -1.7863e-23 2.67467e-41)
(6.28712e-05 5.60528e-05 3.24222e-23 5.11212e-05 3.11371e-23 9.13021e-41)
(6.53016e-05 5.29551e-05 -2.33756e-24 4.45737e-05 -2.17007e-24 3.91829e-43)
(6.70621e-05 4.89983e-05 -9.35697e-24 3.84374e-05 -8.35873e-24 5.57064e-42)
(6.8236e-05 4.42824e-05 -4.66056e-24 3.28494e-05 -3.97345e-24 1.24312e-42)
(6.89421e-05 3.89386e-05 -4.60242e-24 2.79281e-05 -3.71069e-24 1.10639e-42)
(6.93106e-05 3.31164e-05 -9.03933e-24 2.37669e-05 -6.80869e-24 3.9406e-42)
(6.94626e-05 2.69729e-05 1.48482e-22 2.04278e-05 1.03086e-22 9.64375e-40)
(6.9497e-05 2.06606e-05 -1.46436e-22 1.79354e-05 -9.24077e-23 9.37691e-40)
(6.94815e-05 1.43195e-05 1.32136e-22 1.62733e-05 7.36347e-23 6.80742e-40)
(6.94737e-05 8.07862e-06 -1.22015e-22 1.53901e-05 -5.8936e-23 5.83812e-40)
(6.95505e-05 2.07026e-06 1.08652e-22 1.52011e-05 4.37705e-23 4.16872e-40)
(6.9705e-05 -3.60101e-06 -1.29906e-22 1.55885e-05 -4.20851e-23 5.96686e-40)
(6.7862e-05 -9.81584e-06 0 1.65939e-05 0 0)
(5.57977e-06 1.78499e-05 0 5.86928e-05 0 0)
(7.2846e-06 2.16016e-05 -1.98106e-24 6.59817e-05 -4.0756e-24 1.81549e-41)
(9.30372e-06 2.55793e-05 3.37207e-23 7.26751e-05 6.47167e-23 3.49258e-39)
(1.16371e-05 2.96951e-05 -2.75571e-27 7.86184e-05 2.28049e-25 1.84858e-42)
(1.43194e-05 3.38866e-05 -5.3491e-23 8.35931e-05 -8.78596e-23 4.68382e-39)
(1.73938e-05 3.8091e-05 -3.91097e-24 8.74067e-05 -5.98418e-24 1.76922e-41)
(2.08879e-05 4.22265e-05 -4.39624e-24 8.99208e-05 -6.17636e-24 1.72154e-41)
(2.48889e-05 4.63011e-05 3.52996e-23 9.11693e-05 4.65216e-23 7.91244e-40)
(2.93732e-05 5.01914e-05 -4.86064e-23 9.11075e-05 -5.9566e-23 1.19505e-39)
(3.436e-05 5.37663e-05 -4.38103e-26 8.95603e-05 -7.30706e-26 8.67599e-47)
(3.98134e-05 5.69772e-05 2.83556e-23 8.67775e-05 3.10668e-23 2.23122e-40)
(4.56224e-05 5.97289e-05 -3.10682e-23 8.29661e-05 -3.20461e-23 2.25808e-40)
(5.16406e-05 6.19312e-05 1.47345e-23 7.83421e-05 1.46986e-23 3.66386e-41)
(5.76633e-05 6.34846e-05 -1.80649e-23 7.31259e-05 -1.72126e-23 4.84603e-41)
(6.34507e-05 6.42889e-05 1.17355e-21 6.75231e-05 1.0916e-21 1.5129e-37)
(6.87601e-05 6.42519e-05 -1.23062e-21 6.17098e-05 -1.10792e-21 1.51292e-37)
(7.33823e-05 6.32992e-05 -2.07346e-23 5.58309e-05 -1.82692e-23 3.2728e-41)
(7.71738e-05 6.13869e-05 2.39498e-23 5.0006e-05 2.05535e-23 4.09345e-41)
(8.00751e-05 5.85117e-05 -4.02735e-23 4.43405e-05 -3.36274e-23 9.18121e-41)
(8.2113e-05 5.47162e-05 5.41473e-23 3.8936e-05 4.39003e-23 1.60135e-40)
(8.33856e-05 5.00883e-05 -3.2586e-26 3.38948e-05 -1.74893e-26 4.6251e-47)
(8.40362e-05 4.47528e-05 -8.46256e-23 2.93192e-05 -6.28658e-23 2.9758e-40)
(8.42254e-05 3.88598e-05 9.41938e-23 2.53043e-05 6.64217e-23 3.66706e-40)
(8.41061e-05 3.25714e-05 1.02539e-23 2.19285e-05 6.70388e-24 3.8931e-42)
(8.38061e-05 2.60489e-05 9.86685e-24 1.9244e-05 5.96277e-24 3.4244e-42)
(8.34176e-05 1.94416e-05 -1.53296e-22 1.72697e-05 -8.31036e-23 7.58258e-40)
(8.30207e-05 1.28914e-05 2.05532e-24 1.5993e-05 1.21906e-24 2.13725e-42)
(8.2717e-05 6.54675e-06 1.63799e-22 1.53703e-05 6.77506e-23 8.28261e-40)
(8.25119e-05 5.29416e-07 0 1.53199e-05 0 0)
(7.99627e-05 -6.26182e-06 0 1.58285e-05 0 0)
(7.1565e-06 2.04523e-05 0 5.99637e-05 0 0)
(9.23412e-06 2.43396e-05 3.86512e-23 6.60674e-05 7.09414e-23 5.60206e-39)
(1.16268e-05 2.83831e-05 4.27349e-26 7.1671e-05 2.73938e-25 1.70944e-42)
(1.44021e-05 3.25512e-05 -2.53506e-26 7.64906e-05 2.00034e-25 2.0544e-42)
(1.76157e-05 3.67918e-05 -1.16866e-22 8.03492e-05 -1.66226e-22 1.87245e-38)
(2.13216e-05 4.10435e-05 6.99062e-23 8.31123e-05 9.12424e-23 5.02777e-39)
(2.55592e-05 4.52321e-05 5.04239e-24 8.47022e-05 6.11499e-24 1.88058e-41)
(3.04378e-05 4.93897e-05 0 8.52325e-05 0 0)
(3.59082e-05 5.33355e-05 -4.84506e-23 8.45628e-05 -5.11409e-23 9.55992e-40)
(4.20122e-05 5.70029e-05 5.41192e-23 8.27043e-05 5.30762e-23 9.78307e-40)
(4.86743e-05 6.03337e-05 -3.20653e-23 7.99019e-05 -3.01419e-23 2.44679e-40)
(5.57656e-05 6.32466e-05 -7.15871e-26 7.63483e-05 -4.15529e-25 4.86399e-43)
(6.30964e-05 6.56558e-05 3.81123e-23 7.2239e-05 3.26121e-23 2.30766e-40)
(7.04102e-05 6.74646e-05 -1.27594e-24 6.77573e-05 -1.06399e-24 1.98797e-43)
(7.74122e-05 6.85698e-05 1.4385e-21 6.30558e-05 1.17587e-21 1.93342e-37)
(8.38075e-05 6.88689e-05 -1.50853e-21 5.8249e-05 -1.20155e-21 1.93519e-37)
(8.93433e-05 6.82703e-05 1.47805e-24 5.34151e-05 1.15934e-24 1.47659e-43)
(9.38465e-05 6.67077e-05 4.84681e-23 4.8608e-05 3.73625e-23 1.28817e-40)
(9.7245e-05 6.41532e-05 -1.38174e-25 4.38734e-05 -1.56668e-25 4.94404e-43)
(9.95694e-05 6.06265e-05 -6.19669e-23 3.92632e-05 -4.57972e-23 1.75861e-40)
(0.000100936 5.61974e-05 1.04515e-22 3.48438e-05 7.47688e-23 4.15768e-40)
(0.000101515 5.0979e-05 -9.79582e-23 3.06973e-05 -6.7782e-23 3.60638e-40)
(0.0001015 4.51172e-05 0 2.69146e-05 0 0)
(0.00010108 3.87757e-05 -1.16696e-23 2.35843e-05 -7.26373e-24 4.25296e-42)
(0.000100412 3.2122e-05 1.81969e-22 2.07802e-05 1.04846e-22 9.38331e-40)
(9.96168e-05 2.53139e-05 -3.66446e-22 1.85514e-05 -1.93895e-22 3.72269e-39)
(9.87986e-05 1.85062e-05 2.15907e-24 1.69207e-05 1.32368e-24 2.35262e-42)
(9.80841e-05 1.18631e-05 -8.41238e-24 1.58835e-05 -3.2781e-24 1.40008e-42)
(9.74913e-05 5.52208e-06 1.62269e-22 1.53958e-05 5.87183e-23 6.50258e-40)
(9.42413e-05 -1.83381e-06 0 1.53707e-05 0 0)
(9.25356e-06 2.33062e-05 4.28948e-24 6.02007e-05 7.37123e-24 8.89491e-41)
(1.18076e-05 2.72984e-05 0 6.50705e-05 0 0)
(1.46683e-05 3.1374e-05 3.11921e-24 6.95685e-05 4.53024e-24 2.14147e-41)
(1.79911e-05 3.55524e-05 -5.45267e-23 7.32754e-05 -7.20867e-23 4.71085e-39)
(2.18538e-05 3.97897e-05 6.7835e-23 7.60558e-05 8.14553e-23 5.54703e-39)
(2.63186e-05 4.40261e-05 -7.86761e-23 7.78324e-05 -8.72102e-23 5.23785e-39)
(3.14478e-05 4.82095e-05 8.99201e-23 7.85941e-05 9.10584e-23 5.38262e-39)
(3.73396e-05 5.23564e-05 5.12918e-23 7.84673e-05 4.87417e-23 1.24127e-39)
(4.39562e-05 5.62835e-05 -1.23217e-22 7.72986e-05 -1.09197e-22 5.5645e-39)
(5.13287e-05 5.9971e-05 -4.23002e-24 7.52439e-05 -4.22408e-24 1.24407e-42)
(5.93514e-05 6.33602e-05 6.73138e-23 7.25153e-05 5.32819e-23 1.01958e-39)
(6.78677e-05 6.63874e-05 -3.95348e-23 6.92952e-05 -3.05135e-23 2.51061e-40)
(7.6639e-05 6.89778e-05 2.12971e-23 6.57568e-05 1.55804e-23 6.90122e-41)
(8.53532e-05 7.10413e-05 3.59536e-23 6.20463e-05 2.61537e-23 1.38391e-40)
(9.36577e-05 7.24737e-05 1.71801e-21 5.82684e-05 1.23678e-21 2.38164e-37)
(0.000101204 7.3162e-05 -1.82412e-21 5.44823e-05 -1.28977e-21 2.44782e-37)
(0.000107695 7.29949e-05 3.83862e-23 5.07077e-05 2.69615e-23 8.41925e-41)
(0.000112932 7.18793e-05 2.74538e-23 4.69405e-05 1.90986e-23 3.17451e-41)
(0.000116831 6.97576e-05 -5.58025e-23 4.3172e-05 -3.8383e-23 1.39699e-40)
(0.000119432 6.66212e-05 1.26267e-22 3.94071e-05 8.53111e-23 5.73544e-40)
(0.00012087 6.2516e-05 6.6286e-24 3.5676e-05 4.05632e-24 7.85348e-43)
(0.000121348 5.75387e-05 -2.08337e-22 3.20372e-05 -1.34071e-22 1.326e-39)
(0.000121095 5.18264e-05 1.09738e-22 2.85722e-05 6.81869e-23 3.52029e-40)
(0.000120336 4.55411e-05 2.13407e-22 2.53734e-05 1.25637e-22 1.15328e-39)
(0.000119264 3.88542e-05 -2.09781e-22 2.25303e-05 -1.16927e-22 1.12154e-39)
(0.000118027 3.19311e-05 2.01774e-22 2.01166e-05 1.03983e-22 9.23693e-40)
(0.000116755 2.49381e-05 -2.10145e-22 1.81863e-05 -9.94478e-23 1.00768e-39)
(0.000115602 1.80558e-05 1.19879e-23 1.67704e-05 5.06477e-24 3.0086e-42)
(0.000114596 1.14349e-05 0 1.58613e-05 0 0)
(0.00011067 3.56019e-06 -2.34919e-23 1.52893e-05 -7.09318e-24 1.0476e-41)
(1.20165e-05 2.63419e-05 -5.00017e-24 5.92934e-05 -7.4897e-24 9.61965e-41)
(1.51613e-05 3.03789e-05 4.96991e-23 6.29205e-05 6.66576e-23 6.60453e-39)
(1.8593e-05 3.44302e-05 -5.57154e-23 6.63282e-05 -6.73379e-23 6.07239e-39)
(2.25766e-05 3.8554e-05 -4.13022e-24 6.89645e-05 -4.57354e-24 2.32442e-41)
(2.72119e-05 4.27127e-05 -4.80797e-24 7.07336e-05 -4.84093e-24 2.31083e-41)