/*--------------------------------*- C++ -*----------------------------------*\
  =========                 |
  \\      /  F ield         | OpenFOAM: The Open Source CFD Toolbox
   \\    /   O peration     | Website:  https://openfoam.org
    \\  /    A nd           | Version:  12
     \\/     M anipulation  |
\*---------------------------------------------------------------------------*/
FoamFile
{
    format      ascii;
    class       volScalarField;
    location    "80";
    object      p;
}
// * * * * * * * * * * * * * * * * * * * * * * * * * * * * * * * * * * * * * //

dimensions      [0 2 -2 0 0 0 0];

internalField   nonuniform List<scalar> 
6750
(
0.0148195
0.0147975
0.0147682
0.0146039
0.013566
0.0163494
0.0163124
0.016184
0.0159163
0.0155545
0.0181556
0.0180954
0.0179633
0.0177636
0.0176098
0.0200501
0.0199544
0.0198283
0.0196864
0.0196089
0.0219307
0.0217902
0.0216537
0.0215395
0.0215
0.023717
0.0235272
0.0233693
0.0232647
0.0232423
0.0253603
0.0251199
0.0249369
0.0248346
0.0248204
0.0268311
0.026541
0.0263328
0.026231
0.0262215
0.028111
0.0277738
0.0275423
0.027441
0.0274349
0.0291897
0.0288094
0.028558
0.0284578
0.028454
0.0300638
0.0296458
0.0293786
0.0292801
0.0292779
0.0307366
0.0302874
0.0300087
0.0299124
0.0299111
0.0312176
0.0307435
0.0304585
0.0303644
0.0303633
0.0315211
0.0310278
0.030743
0.0306501
0.0306482
0.0316602
0.0311612
0.0308817
0.0307863
0.0307822
0.0316602
0.0311612
0.0308817
0.0307863
0.0307821
0.031521
0.0310278
0.0307429
0.03065
0.0306481
0.0312175
0.0307434
0.0304584
0.0303643
0.0303632
0.0307364
0.0302873
0.0300085
0.0299122
0.029911
0.0300635
0.0296456
0.0293783
0.0292798
0.0292776
0.0291894
0.0288091
0.0285577
0.0284575
0.0284537
0.0281107
0.0277734
0.027542
0.0274407
0.0274345
0.0268307
0.0265406
0.0263323
0.0262306
0.0262211
0.0253597
0.0251194
0.0249363
0.0248341
0.0248199
0.0237164
0.0235266
0.0233688
0.0232641
0.0232417
0.02193
0.0217895
0.021653
0.0215388
0.0214994
0.0200493
0.0199536
0.0198275
0.0196856
0.0196081
0.0181548
0.0180945
0.0179625
0.0177628
0.0176089
0.0163484
0.0163115
0.0161831
0.0159153
0.0155535
0.0148184
0.0147964
0.0147671
0.0146028
0.013565
0.00733399
0.00794123
0.00943251
0.0105339
0.0113304
0.0119599
0.0124492
0.0128107
0.0130732
0.0132417
0.0132914
0.0132914
0.0132149
0.0130606
0.0128286
0.012517
0.0121243
0.0116543
0.0111114
0.0105004
0.00983435
0.00916148
0.00847097
0.00777812
0.00709961
0.00644768
0.00583274
0.0052717
0.00477331
0.00425062
0.0112785
0.0120825
0.01289
0.0132931
0.0135209
0.0136589
0.0137094
0.0136839
0.0136124
0.0134745
0.0132626
0.0130704
0.0128608
0.0126392
0.0124051
0.0121505
0.0118642
0.0115359
0.0111562
0.0107229
0.0102416
0.00967543
0.0090788
0.00845077
0.00780079
0.00713991
0.00647617
0.00582552
0.00522998
0.00465735
0.0137775
0.0139615
0.0142783
0.0144316
0.0145051
0.0145095
0.0144334
0.0142901
0.014102
0.0138107
0.0134677
0.0131306
0.0127677
0.0123918
0.0120091
0.0116204
0.0112231
0.0108127
0.0103844
0.00993344
0.00945654
0.00896318
0.0084463
0.00791131
0.00736374
0.006809
0.00624786
0.00569112
0.00522182
0.00489806
0.0152275
0.0150013
0.0151313
0.0152137
0.0152211
0.0151511
0.0149995
0.0147833
0.0145122
0.0141064
0.0136693
0.0132094
0.0127108
0.0121909
0.0116613
0.0111305
0.0106047
0.0100874
0.00958
0.00908157
0.00858955
0.00811252
0.00764005
0.0071724
0.00671003
0.00625285
0.00579388
0.00533591
0.0050011
0.00498711
0.016321
0.0159483
0.0159964
0.0160081
0.0159324
0.0157759
0.0155399
0.0152395
0.0148678
0.0143557
0.0138218
0.0132442
0.012623
0.011978
0.0113247
0.0106768
0.0100462
0.00944144
0.00886822
0.00832876
0.00782236
0.00734896
0.00690368
0.00648243
0.00608173
0.00569758
0.00531653
0.00493274
0.00470078
0.00497857
0.0172694
0.016861
0.0168447
0.0167761
0.0166148
0.0163724
0.0160517
0.0156644
0.0151819
0.014572
0.0139373
0.0132466
0.012511
0.011752
0.0109884
0.0102378
0.00951596
0.00883499
0.00820314
0.00762449
0.00709911
0.00662463
0.00619613
0.00580737
0.0054524
0.00512457
0.00480523
0.00448136
0.00433504
0.00488091
0.0181075
0.0177097
0.017636
0.0174906
0.0172505
0.0169276
0.0165269
0.0160553
0.015459
0.0147613
0.0140258
0.0132272
0.0123836
0.011518
0.010652
0.00980646
0.00899995
0.00824736
0.0075589
0.0069399
0.00639098
0.00590927
0.00548883
0.00512197
0.00480108
0.00451742
0.00424798
0.00397452
0.0039041
0.00469269
0.0188565
0.0184997
0.0183763
0.0181592
0.0178451
0.0174455
0.0169698
0.0164117
0.0157056
0.0149265
0.0140911
0.0131893
0.0122431
0.011277
0.0103148
0.00938006
0.00849374
0.0076728
0.00692904
0.00626874
0.00569298
0.00519859
0.00477891
0.00442524
0.00412869
0.00387885
0.00364883
0.00341701
0.00341402
0.00441586
0.0195388
0.0192446
0.0190779
0.0187921
0.0184069
0.0179349
0.0173828
0.0167318
0.0159304
0.0150685
0.0141352
0.0131343
0.0120902
0.0110285
0.00997513
0.00895584
0.00799362
0.00710703
0.00630908
0.00560685
0.00500172
0.00449034
0.00406553
0.00371782
0.00343742
0.00321247
0.00301259
0.00281445
0.00287128
0.00405492
0.0201716
0.0199545
0.019749
0.019396
0.0189414
0.0183997
0.0177714
0.0170212
0.0161364
0.015189
0.0141604
0.0130639
0.0119254
0.0107718
0.0096311
0.00853077
0.00749547
0.00654509
0.00569363
0.00494874
0.00431207
0.00378011
0.00334531
0.00299759
0.00272647
0.00251884
0.00234117
0.00216985
0.00228004
0.00361475
0.0207677
0.0206371
0.0203963
0.0199763
0.0194525
0.018843
0.0181382
0.0172871
0.0163274
0.0152918
0.0141694
0.0129797
0.0117493
0.0105064
0.00928094
0.00810189
0.00699528
0.00598212
0.00507721
0.00428869
0.0036184
0.00306271
0.00261374
0.00226096
0.00199334
0.0017966
0.00163437
0.00148406
0.00164214
0.00309956
0.0213375
0.0212996
0.0210264
0.0205398
0.0199477
0.0192689
0.0184828
0.0175392
0.0165048
0.0153792
0.0141644
0.0128829
0.011562
0.0102315
0.00892279
0.00766624
0.00648911
0.00541337
0.00445449
0.00362103
0.00291497
0.00233259
0.00186572
0.00150347
0.00123437
0.00104298
0.000890346
0.000756108
0.00095739
0.00251234
0.021891
0.0219492
0.0216462
0.0210933
0.0204342
0.0196842
0.0188084
0.0177836
0.0166693
0.0154535
0.014147
0.0127744
0.0113637
0.00994614
0.00855459
0.00722077
0.005973
0.00483408
0.00382009
0.00293996
0.00219578
0.00158376
0.0010955
0.000719783
0.000444749
0.000253811
0.00010567
-1.67753e-05
0.00022361
0.00185446
0.0224372
0.0225922
0.0222622
0.0216428
0.0209167
0.0200936
0.019123
0.0180241
0.0168249
0.0155178
0.0141194
0.012655
0.011154
0.00964898
0.00817407
0.00676223
0.00544275
0.00423926
0.00316837
0.00223933
0.00145438
0.000809639
0.000296507
-9.64913e-05
-0.000381577
-0.000576526
-0.000724768
-0.000839206
-0.000563363
0.00112536
0.0229831
0.0232392
0.0228841
0.0221982
0.0214006
0.0204986
0.0194382
0.0182635
0.0169749
0.0155748
0.0140829
0.0125254
0.0109326
0.0093385
0.00777861
0.00628697
0.00489382
0.0036235
0.00249319
0.00151245
0.000683621
2.80595e-06
-0.000538796
-0.000952878
-0.00125201
-0.00145521
-0.00160783
-0.00171774
-0.00140975
0.00032225
0.0235359
0.0239012
0.0235238
0.02277
0.0218962
0.020904
0.0197616
0.0185039
0.0171224
0.015627
0.0140392
0.0123857
0.0106985
0.00901274
0.00736515
0.00579088
0.00432107
0.0029808
0.00178776
0.000751831
-0.000124499
-0.000845169
-0.00141913
-0.00185827
-0.00217549
-0.00239115
-0.00255232
-0.00266105
-0.00232401
-0.000560216
0.0241061
0.0245914
0.0241927
0.0233673
0.0224102
0.0213203
0.0200987
0.0187503
0.0172716
0.0156771
0.0139894
0.0122361
0.0104505
0.00866917
0.00692995
0.00526907
0.00371857
0.00230424
0.00104428
-5.108e-05
-0.000979209
-0.00174406
-0.00235471
-0.0028232
-0.00316282
-0.00339528
-0.00356924
-0.0036802
-0.00331709
-0.0015303
0.0247142
0.0253202
0.0249034
0.0239969
0.0229455
0.0217624
0.020455
0.0190082
0.0174267
0.0157278
0.0139346
0.0120761
0.0101868
0.00830454
0.00646841
0.00471567
0.00307925
0.00158565
0.000253603
-0.000906331
-0.00189135
-0.0027054
-0.00335766
-0.00386032
-0.00422706
-0.00448102
-0.00467227
-0.00478911
-0.00440293
-0.00259967
0.0253805
0.0260983
0.0256662
0.0246734
0.0235144
0.0222407
0.0208357
0.0192829
0.0175919
0.0157814
0.0138756
0.0119047
0.00990461
0.00791454
0.00597469
0.00412339
0.00239448
0.000815169
-0.000595291
-0.00182598
-0.00287392
-0.00374305
-0.00444263
-0.00498497
-0.00538415
-0.00566486
-0.00587838
-0.0060052
-0.00559915
-0.00378418
0.0261235
0.0269486
0.0264969
0.0254077
0.0241367
0.0227646
0.0212503
0.0195819
0.0177721
0.0158405
0.0138126
0.0117201
0.00960017
0.00749339
0.0054412
0.00348298
0.00165346
-1.94635e-05
-0.00151599
-0.00282485
-0.00394289
-0.00487403
-0.0056276
-0.00621602
-0.00665382
-0.00696729
-0.0072088
-0.0073504
-0.00692807
-0.00510486
0.0269687
0.0279012
0.0274205
0.026216
0.0248326
0.0233462
0.0217094
0.0199134
0.0179724
0.0159075
0.0137453
0.0115192
0.00926787
0.00703322
0.00485792
0.00278241
0.000842293
-0.000933826
-0.00252565
-0.00392157
-0.00511827
-0.00611965
-0.00693511
-0.00757717
-0.00806084
-0.00841413
-0.00869035
-0.0088525
-0.00841819
-0.00658952
0.0279568
0.0289792
0.0284572
0.0271323
0.0256228
0.0240026
0.0222266
0.0202869
0.0181984
0.015984
0.0136719
0.011297
0.00889961
0.00652306
0.00421124
0.00200565
-5.72596e-05
-0.00194823
-0.0036465
-0.00514017
-0.00642578
-0.00750721
-0.00839397
-0.00909869
-0.00963693
-0.0100385
-0.0103575
-0.0105473
-0.0101065
-0.00827511
0.0291345
0.030227
0.029648
0.0281933
0.0265318
0.0247545
0.0228179
0.0207129
0.0184557
0.0160708
0.0135885
0.0110454
0.0084834
0.00594731
0.00348227
0.00113081
-0.00106985
-0.00308989
-0.00490813
-0.00651245
-0.0078993
-0.00907262
-0.010042
-0.0108203
-0.0114236
-0.0118836
-0.0122552
-0.0124817
-0.0120416
-0.0102114
0.0305695
0.0317057
0.0310522
0.0294393
0.0275935
0.0256294
0.0235029
0.0212039
0.0187496
0.0161669
0.013488
0.0107516
0.00800125
0.0052833
0.00264413
0.000127166
-0.00222971
-0.00439624
-0.00635098
-0.00808169
-0.00958483
-0.0108645
-0.0119303
-0.0127954
-0.0134766
-0.0140075
-0.0144439
-0.0147185
-0.0142894
-0.0124666
0.0323745
0.0335083
0.0327406
0.0309252
0.0288541
0.0266628
0.0243067
0.0217743
0.0190849
0.0162677
0.0133574
0.0103948
0.00742545
0.00449711
0.00165729
-0.00104983
-0.00358594
-0.00592059
-0.00803229
-0.00990885
-0.0115469
-0.0129506
-0.0141299
-0.0150983
-0.0158733
-0.0164907
-0.0170068
-0.0173445
-0.0169411
-0.0151376
0.0346753
0.0357575
0.0348133
0.0327349
0.0303801
0.0279043
0.0252622
0.0224418
0.0194646
0.0163627
0.0131739
0.00994125
0.00671231
0.00353636
0.000461723
-0.00246705
-0.00521164
-0.00774179
-0.0100363
-0.0120833
-0.0138796
-0.0154298
-0.0167441
-0.0178362
-0.0187248
-0.0194476
-0.0200619
-0.0204815
-0.020126
-0.0183635
0.0377265
0.0386464
0.0374258
0.0349952
0.0322707
0.0294255
0.0264147
0.0232266
0.0198859
0.0164286
0.0128957
0.00933309
0.00579017
0.0023173
-0.00103694
-0.00422838
-0.00721948
-0.0099809
-0.0124923
-0.0147424
-0.0167287
-0.0184557
-0.0199341
-0.0211778
-0.0222063
-0.0230591
-0.0237942
-0.0243195
-0.024046
-0.022366
0.0419083
0.0424562
0.040785
0.0378662
0.0346471
0.0313101
0.0278115
0.0241424
0.0203317
0.0164201
0.0124529
0.00847896
0.00454938
0.000714914
-0.00297666
-0.00648288
-0.00976835
-0.0128059
-0.0155769
-0.0180715
-0.0202882
-0.0222325
-0.0239145
-0.0253483
-0.0265539
-0.0275716
-0.0284587
-0.029124
-0.0289919
-0.0274803
0.0480859
0.0478902
0.0454797
0.0418669
0.037949
0.0338976
0.0296813
0.0253052
0.0208094
0.0162445
0.0116626
0.00711694
0.00266008
-0.00165847
-0.00579412
-0.00970871
-0.0133715
-0.0167594
-0.0198565
-0.0226542
-0.0251577
-0.0273742
-0.0293072
-0.0309707
-0.0323843
-0.0335857
-0.0346279
-0.0354352
-0.0355083
-0.0343317
0.0588527
0.0569816
0.053029
0.048197
0.0431264
0.0379126
0.0325522
0.0270801
0.0215534
0.0160318
0.0105719
0.00522625
4.17726e-05
-0.00494079
-0.00968765
-0.0141719
-0.0183732
-0.0222772
-0.025876
-0.0291661
-0.0321393
-0.034797
-0.0371541
-0.0392188
-0.0410024
-0.0425303
-0.0438469
-0.0449407
-0.045515
-0.0450067
0.0110284
0.0119742
0.0137383
0.0151331
0.016298
0.017381
0.0184159
0.0194115
0.0203777
0.0213237
0.0222575
0.023187
0.0241202
0.0250653
0.0260306
0.0270269
0.0280672
0.0291685
0.0303492
0.0316306
0.0330405
0.0346184
0.0364121
0.0384873
0.040933
0.0438837
0.0475234
0.0520638
0.0577298
0.06504
0.015387
0.0163701
0.0175031
0.0184443
0.0192817
0.020078
0.0208449
0.0215867
0.022311
0.0230259
0.0237394
0.0244596
0.0251949
0.0259542
0.0267472
0.0275856
0.0284834
0.0294577
0.0305282
0.0317197
0.0330644
0.0346053
0.0363988
0.0385228
0.0410865
0.0442514
0.0482506
0.0534036
0.0601937
0.0692041
0.0177101
0.0185845
0.0194314
0.0201854
0.0209157
0.021639
0.0223522
0.0230563
0.0237562
0.0244577
0.025167
0.0258908
0.0266364
0.0274121
0.0282273
0.0290937
0.0300253
0.0310395
0.0321573
0.0334056
0.0348197
0.0364462
0.0383478
0.0406115
0.0433604
0.0467728
0.0511129
0.0567564
0.0643492
0.0745763
0.0197345
0.0204987
0.0212291
0.0219027
0.0225686
0.0232367
0.0239061
0.0245795
0.0252619
0.0259589
0.0266761
0.0274198
0.0281971
0.029016
0.0298862
0.0308194
0.03183
0.0329358
0.0341588
0.0355276
0.0370796
0.0388644
0.0409488
0.0434256
0.0464253
0.050136
0.0548364
0.0609189
0.0691195
0.0801688
0.0216232
0.0222936
0.0229335
0.0235353
0.0241406
0.0247593
0.0253921
0.0260418
0.0267126
0.0274092
0.0281369
0.0289016
0.0297101
0.0305707
0.0314932
0.0324898
0.0335753
0.0347684
0.0360923
0.0375775
0.0392631
0.0412016
0.0434633
0.0461455
0.0493844
0.0533756
0.0584078
0.064884
0.0736234
0.0854138
0.0233472
0.0239346
0.0244978
0.0250394
0.0255968
0.0261789
0.0267862
0.0274208
0.0280866
0.0287875
0.0295285
0.0303153
0.0311547
0.0320548
0.0330257
0.0340799
0.0352326
0.0365032
0.0379163
0.0395033
0.0413055
0.0433775
0.0457926
0.0486518
0.0520963
0.056328
0.0616451
0.0684638
0.077684
0.0901757
0.0249038
0.0254171
0.0259154
0.0264079
0.0269279
0.0274825
0.0280718
0.0286976
0.0293631
0.0300719
0.0308287
0.0316388
0.0325089
0.0334472
0.034464
0.0355716
0.0367861
0.0381272
0.0396203
0.0412981
0.0432032
0.045392
0.0479403
0.050952
0.0545721
0.0590084
0.0645676
0.0716794
0.0813097
0.094424
0.0262884
0.0267352
0.0271779
0.0276302
0.0281208
0.0286547
0.0292316
0.0298529
0.0305213
0.03124
0.0320134
0.0328465
0.033746
0.03472
0.0357788
0.0369352
0.0382053
0.0396094
0.0411737
0.0429315
0.0449268
0.0472173
0.0498807
0.0530231
0.0567931
0.0614027
0.0671664
0.0745259
0.0844922
0.0981338
0.0274928
0.0278799
0.0282753
0.0286953
0.029163
0.0296816
0.0302502
0.03087
0.031543
0.0322723
0.0330617
0.0339163
0.0348425
0.0358485
0.0369446
0.0381438
0.0394623
0.0409211
0.0425467
0.0443732
0.0464454
0.0488222
0.0515828
0.0548353
0.0587306
0.0634845
0.0694179
0.0769827
0.0872147
0.101291
0.0285098
0.0288446
0.0292008
0.0295954
0.0300456
0.030553
0.0311164
0.0317364
0.0324148
0.0331542
0.0339583
0.0348319
0.0357814
0.036815
0.0379428
0.0391782
0.0405376
0.0420421
0.0437188
0.0456024
0.0477382
0.0501861
0.0530264
0.0563687
0.060366
0.0652368
0.0713074
0.0790383
0.0894722
0.1039
0.0293368
0.0296271
0.0299521
0.0303271
0.0307644
0.0312638
0.031824
0.0324452
0.0331289
0.0338773
0.034694
0.0355836
0.0365525
0.0376087
0.0387625
0.0400273
0.0414198
0.0429613
0.044679
0.0466082
0.0487948
0.0512992
0.0542026
0.0576158
0.0616933
0.0666559
0.0728339
0.080695
0.091275
0.105983
0.0299758
0.0302304
0.0305315
0.0308923
0.0313203
0.0318143
0.0323726
0.0329954
0.0336836
0.0344395
0.0352663
0.0361686
0.0371526
0.0382264
0.0394005
0.040688
0.042106
0.0436757
0.0454249
0.0473889
0.0496141
0.0521614
0.0551127
0.0585794
0.0627174
0.0677488
0.0740073
0.0819662
0.092645
0.107572
0.0304342
0.0306623
0.0309464
0.0312974
0.0317192
0.0322096
0.032767
0.0333911
0.034083
0.0348444
0.0356787
0.0365903
0.0375853
0.038672
0.0398606
0.0411645
0.0426007
0.0441907
0.0459623
0.0479511
0.0502038
0.0527815
0.0557667
0.0592713
0.0634518
0.0685316
0.0748467
0.0828746
0.0936126
0.108706
0.0307239
0.0309346
0.0312081
0.0315532
0.0319712
0.0324595
0.0330164
0.0336417
0.0343359
0.0351011
0.0359402
0.0368578
0.03786
0.0389548
0.0401527
0.0414671
0.0429149
0.0445178
0.0463036
0.0483082
0.0505782
0.0531752
0.0561817
0.0597102
0.0639176
0.0690276
0.0753783
0.0834496
0.0942152
0.109429
0.0308599
0.0310622
0.0313307
0.031673
0.0320893
0.0325768
0.0331336
0.0337594
0.0344549
0.0352219
0.0360634
0.0369839
0.0379895
0.0390883
0.0402907
0.0416101
0.0430634
0.0446725
0.0464652
0.0484773
0.0507556
0.0533618
0.0563785
0.0599184
0.0641386
0.069263
0.0756306
0.0837224
0.0944946
0.109779
0.0308599
0.0310622
0.0313306
0.031673
0.0320893
0.0325768
0.0331336
0.0337594
0.0344549
0.0352219
0.0360634
0.0369839
0.0379895
0.0390883
0.0402907
0.0416101
0.0430634
0.0446725
0.0464652
0.0484773
0.0507556
0.0533619
0.0563786
0.0599184
0.0641386
0.0692631
0.0756306
0.0837224
0.0944947
0.109779
0.0307238
0.0309345
0.031208
0.0315531
0.0319711
0.0324594
0.0330164
0.0336416
0.0343359
0.0351011
0.0359402
0.0368578
0.03786
0.0389548
0.0401527
0.0414671
0.0429149
0.0445178
0.0463036
0.0483082
0.0505782
0.0531753
0.0561818
0.0597103
0.0639177
0.0690278
0.0753784
0.0834497
0.0942154
0.109429
0.0304341
0.0306621
0.0309463
0.0312973
0.0317191
0.0322095
0.0327669
0.033391
0.0340829
0.0348444
0.0356786
0.0365902
0.0375853
0.0386719
0.0398605
0.0411645
0.0426007
0.0441907
0.0459623
0.0479512
0.0502038
0.0527816
0.0557668
0.0592714
0.063452
0.0685318
0.074847
0.082875
0.093613
0.108706
0.0299757
0.0302303
0.0305313
0.0308921
0.0313202
0.0318141
0.0323725
0.0329952
0.0336835
0.0344394
0.0352662
0.0361685
0.0371525
0.0382264
0.0394004
0.040688
0.042106
0.0436757
0.0454249
0.047389
0.0496142
0.0521615
0.0551128
0.0585796
0.0627177
0.0677491
0.0740077
0.0819667
0.0926455
0.107572
0.0293365
0.0296269
0.0299518
0.0303269
0.0307642
0.0312637
0.0318238
0.0324451
0.0331287
0.0338772
0.0346939
0.0355835
0.0365524
0.0376086
0.0387625
0.0400273
0.0414198
0.0429613
0.044679
0.0466083
0.0487949
0.0512993
0.0542028
0.0576161
0.0616937
0.0666563
0.0728344
0.0806956
0.0912757
0.105984
0.0285095
0.0288443
0.0292006
0.0295951
0.0300454
0.0305528
0.0311162
0.0317362
0.0324146
0.033154
0.0339581
0.0348318
0.0357813
0.0368148
0.0379428
0.0391781
0.0405376
0.0420421
0.0437189
0.0456025
0.0477383
0.0501863
0.0530267
0.056369
0.0603664
0.0652373
0.071308
0.079039
0.0894731
0.103902
0.0274924
0.0278796
0.028275
0.028695
0.0291627
0.0296813
0.03025
0.0308697
0.0315428
0.0322721
0.0330615
0.0339161
0.0348424
0.0358484
0.0369445
0.0381437
0.0394623
0.0409211
0.0425467
0.0443733
0.0464456
0.0488224
0.0515831
0.0548356
0.058731
0.063485
0.0694185
0.0769835
0.0872157
0.101292
0.026288
0.0267348
0.0271775
0.0276299
0.0281205
0.0286544
0.0292313
0.0298526
0.030521
0.0312398
0.0320131
0.0328463
0.0337458
0.0347198
0.0357787
0.0369351
0.0382052
0.0396094
0.0411737
0.0429316
0.044927
0.0472175
0.049881
0.0530235
0.0567936
0.0614034
0.0671672
0.0745269
0.0844934
0.0981352
0.0249033
0.0254167
0.0259149
0.0264074
0.0269275
0.0274821
0.0280714
0.0286973
0.0293627
0.0300716
0.0308284
0.0316385
0.0325087
0.033447
0.0344638
0.0355715
0.036786
0.0381272
0.0396204
0.0412982
0.0432034
0.0453923
0.0479406
0.0509524
0.0545727
0.0590091
0.0645684
0.0716804
0.081311
0.0944257
0.0233466
0.023934
0.0244973
0.0250389
0.0255963
0.0261784
0.0267857
0.0274204
0.0280862
0.0287871
0.0295282
0.030315
0.0311544
0.0320545
0.0330255
0.0340797
0.0352325
0.0365032
0.0379163
0.0395034
0.0413057
0.0433777
0.045793
0.0486523
0.0520968
0.0563287
0.061646
0.0684648
0.0776854
0.0901775
0.0216225
0.0222929
0.0229329
0.0235347
0.02414
0.0247587
0.0253916
0.0260413
0.0267121
0.0274088
0.0281365
0.0289012
0.0297097
0.0305704
0.031493
0.0324896
0.0335752
0.0347683
0.0360923
0.0375775
0.0392632
0.0412018
0.0434637
0.0461459
0.049385
0.0533764
0.0584087
0.0648851
0.0736249
0.0854158
0.0197338
0.020498
0.0212284
0.021902
0.0225679
0.0232361
0.0239054
0.0245789
0.0252614
0.0259584
0.0266757
0.0274194
0.0281967
0.0290156
0.0298859
0.0308192
0.0318298
0.0329356
0.0341588
0.0355277
0.0370798
0.0388646
0.0409492
0.043426
0.0464258
0.0501367
0.0548373
0.0609201
0.069121
0.0801709
0.0177093
0.0185837
0.0194306
0.0201846
0.0209149
0.0216383
0.0223515
0.0230556
0.0237555
0.0244571
0.0251665
0.0258903
0.026636
0.0274117
0.028227
0.0290934
0.0300251
0.0310394
0.0321573
0.0334057
0.0348198
0.0364464
0.0383481
0.040612
0.043361
0.0467735
0.0511138
0.0567577
0.0643508
0.0745785
0.0153861
0.0163693
0.0175023
0.0184435
0.0192809
0.0200772
0.0208441
0.021586
0.0223103
0.0230252
0.0237388
0.024459
0.0251944
0.0259537
0.0267468
0.0275852
0.0284831
0.0294575
0.0305281
0.0317197
0.0330644
0.0346054
0.036399
0.0385232
0.041087
0.0442521
0.0482515
0.0534048
0.0601952
0.0692064
0.0110275
0.0119734
0.0137375
0.0151323
0.0162972
0.0173802
0.0184151
0.0194108
0.020377
0.021323
0.0222569
0.0231865
0.0241197
0.0250648
0.0260302
0.0270265
0.0280669
0.0291682
0.030349
0.0316304
0.0330404
0.0346184
0.0364122
0.0384876
0.0409335
0.0438843
0.0475243
0.052065
0.0577315
0.0650423
0.0588551
0.0569841
0.0530317
0.0481997
0.043129
0.0379153
0.032555
0.0270828
0.0215561
0.0160346
0.0105747
0.00522901
4.44972e-05
-0.00493812
-0.00968505
-0.0141694
-0.0183708
-0.0222749
-0.0258739
-0.0291641
-0.0321374
-0.0347953
-0.0371526
-0.0392174
-0.0410012
-0.0425292
-0.043846
-0.0449399
-0.0455144
-0.045006
0.0480877
0.0478921
0.0454819
0.0418691
0.0379512
0.0338998
0.0296836
0.0253074
0.0208117
0.0162467
0.0116648
0.00711911
0.00266221
-0.00165639
-0.0057921
-0.00970677
-0.0133697
-0.0167577
-0.0198549
-0.0226527
-0.0251563
-0.0273729
-0.0293061
-0.0309697
-0.0323835
-0.033585
-0.0346273
-0.0354347
-0.0355077
-0.0343309
0.0419096
0.0424577
0.0407867
0.037868
0.0346489
0.0313119
0.0278133
0.0241442
0.0203335
0.0164219
0.0124547
0.00848067
0.00455104
0.00071652
-0.00297512
-0.00648141
-0.00976696
-0.0128046
-0.0155757
-0.0180704
-0.0202872
-0.0222316
-0.0239137
-0.0253476
-0.0265533
-0.0275711
-0.0284583
-0.0291236
-0.0289915
-0.0274797
0.0377275
0.0386476
0.0374272
0.0349967
0.0322722
0.029427
0.0264161
0.0232281
0.0198874
0.01643
0.0128971
0.00933444
0.00579146
0.00231853
-0.00103576
-0.00422727
-0.00721845
-0.00997995
-0.0124914
-0.0147417
-0.016728
-0.0184551
-0.0199336
-0.0211774
-0.0222059
-0.0230588
-0.023794
-0.0243194
-0.0240458
-0.0223655
0.0346761
0.0357584
0.0348144
0.0327361
0.0303813
0.0279055
0.0252634
0.022443
0.0194657
0.0163638
0.0131749
0.00994229
0.0067133
0.00353729
0.000462592
-0.00246625
-0.00521091
-0.00774113
-0.0100357
-0.0120828
-0.0138792
-0.0154295
-0.0167439
-0.017836
-0.0187246
-0.0194475
-0.0200619
-0.0204814
-0.0201259
-0.0183631
0.0323752
0.033509
0.0327414
0.0309261
0.028855
0.0266638
0.0243076
0.0217753
0.0190858
0.0162686
0.0133582
0.0103956
0.00742618
0.00449778
0.0016579
-0.00104928
-0.00358547
-0.00592018
-0.00803196
-0.00990859
-0.0115467
-0.0129504
-0.0141299
-0.0150983
-0.0158733
-0.0164907
-0.0170069
-0.0173446
-0.0169411
-0.0151372
0.03057
0.0317063
0.0310529
0.02944
0.0275943
0.0256301
0.0235037
0.0212046
0.0187503
0.0161675
0.0134886
0.0107522
0.00800176
0.00528376
0.00264452
0.000127492
-0.00222945
-0.00439604
-0.00635085
-0.00808162
-0.00958482
-0.0108645
-0.0119304
-0.0127955
-0.0134767
-0.0140077
-0.014444
-0.0147187
-0.0142895
-0.0124664
0.0291349
0.0302274
0.0296485
0.0281939
0.0265324
0.0247551
0.0228184
0.0207134
0.0184562
0.0160713
0.0135889
0.0110458
0.00848372
0.00594757
0.00348247
0.00113095
-0.00106978
-0.00308987
-0.00490817
-0.00651254
-0.00789944
-0.00907281
-0.0100422
-0.0108205
-0.0114238
-0.0118838
-0.0122554
-0.012482
-0.0120418
-0.0102112
0.0279571
0.0289795
0.0284576
0.0271327
0.0256231
0.024003
0.022227
0.0202872
0.0181988
0.0159843
0.0136721
0.0112972
0.00889976
0.00652315
0.00421127
0.00200562
-5.73442e-05
-0.00194837
-0.00364669
-0.0051404
-0.00642605
-0.00750751
-0.0083943
-0.00909903
-0.00963728
-0.0100388
-0.0103578
-0.0105476
-0.0101067
-0.00827505
0.0269688
0.0279014
0.0274207
0.0262162
0.0248328
0.0233464
0.0217096
0.0199137
0.0179726
0.0159076
0.0137454
0.0115193
0.00926787
0.00703316
0.0048578
0.00278224
0.000842067
-0.000934098
-0.00252596
-0.00392192
-0.00511865
-0.00612005
-0.00693552
-0.00757759
-0.00806126
-0.00841454
-0.00869074
-0.00885286
-0.00841845
-0.00658954
0.0261235
0.0269486
0.026497
0.0254078
0.0241368
0.0227646
0.0212503
0.019582
0.0177721
0.0158406
0.0138126
0.01172
0.00960003
0.0074932
0.00544095
0.00348268
0.00165311
-1.98544e-05
-0.00151641
-0.0028253
-0.00394336
-0.00487451
-0.00562809
-0.0062165
-0.00665428
-0.00696773
-0.00720922
-0.00735078
-0.00692836
-0.00510496
0.0253804
0.0260983
0.0256662
0.0246734
0.0235143
0.0222407
0.0208356
0.0192828
0.0175918
0.0157813
0.0138754
0.0119045
0.00990435
0.00791422
0.00597432
0.00412298
0.00239403
0.000814675
-0.000595811
-0.00182652
-0.00287447
-0.00374359
-0.00444317
-0.00498549
-0.00538465
-0.00566533
-0.00587882
-0.00600559
-0.00559946
-0.00378435
0.024714
0.0253201
0.0249032
0.0239968
0.0229453
0.0217623
0.0204548
0.019008
0.0174265
0.0157275
0.0139343
0.0120758
0.0101864
0.00830412
0.00646794
0.00471516
0.0030787
0.00158507
0.000253
-0.000906942
-0.00189196
-0.002706
-0.00335824
-0.00386088
-0.00422758
-0.00448151
-0.00467271
-0.0047895
-0.00440324
-0.0025999
0.0241058
0.0245912
0.0241924
0.023367
0.02241
0.0213201
0.0200985
0.01875
0.0172713
0.0156768
0.013989
0.0122357
0.01045
0.00866866
0.00692939
0.00526847
0.00371794
0.00230358
0.00104361
-5.17543e-05
-0.000979873
-0.0017447
-0.00235532
-0.00282378
-0.00316337
-0.00339578
-0.00356968
-0.00368057
-0.00331739
-0.00153056
0.0235355
0.0239008
0.0235234
0.0227696
0.0218959
0.0209037
0.0197612
0.0185036
0.017122
0.0156266
0.0140387
0.0123852
0.0106979
0.00901214
0.00736451
0.0057902
0.00432037
0.00298008
0.00178703
0.000751105
-0.000125207
-0.000845849
-0.00141977
-0.00185886
-0.00217604
-0.00239164
-0.00255275
-0.0026614
-0.00232429
-0.000560514
0.0229826
0.0232387
0.0228837
0.0221978
0.0214002
0.0204981
0.0194377
0.0182631
0.0169744
0.0155743
0.0140824
0.0125248
0.0109319
0.00933783
0.00777791
0.00628623
0.00489305
0.00362273
0.00249241
0.00151168
0.000682879
2.09965e-06
-0.000539456
-0.000953484
-0.00125255
-0.00145568
-0.00160824
-0.00171806
-0.00141001
0.000321931
0.0224367
0.0225917
0.0222617
0.0216423
0.0209162
0.0200931
0.0191225
0.0180235
0.0168243
0.0155172
0.0141187
0.0126544
0.0111533
0.00964825
0.00817329
0.00676143
0.00544193
0.00423843
0.00316755
0.00223853
0.00145361
0.000808916
0.000295838
-9.70963e-05
-0.00038211
-0.000576982
-0.000725143
-0.000839491
-0.000563588
0.00112503
0.0218904
0.0219486
0.0216456
0.0210927
0.0204336
0.0196836
0.0188077
0.017783
0.0166687
0.0154528
0.0141463
0.0127736
0.0113629
0.00994534
0.00855376
0.00721992
0.00597213
0.00483321
0.00381924
0.00293914
0.002195
0.00158303
0.00109483
0.000719185
0.00044423
0.000253378
0.000105326
-1.70251e-05
0.000223417
0.00185412
0.0213368
0.021299
0.0210258
0.0205391
0.019947
0.0192682
0.0184821
0.0175385
0.0165041
0.0153785
0.0141636
0.0128821
0.0115612
0.0102307
0.0089219
0.00766534
0.0064882
0.00541247
0.00445361
0.00362019
0.00291417
0.00233185
0.00186506
0.00150289
0.00123387
0.00104257
0.000890032
0.000755893
0.000957229
0.00251201
0.020767
0.0206364
0.0203956
0.0199756
0.0194517
0.0188422
0.0181375
0.0172862
0.0163266
0.0152909
0.0141686
0.0129788
0.0117484
0.0105055
0.00928
0.00810094
0.00699433
0.00598118
0.0050763
0.00428783
0.00361759
0.00306197
0.00261308
0.00226038
0.00199286
0.00179622
0.00163408
0.00148388
0.00164201
0.00309926
0.0201708
0.0199537
0.0197482
0.0193952
0.0189406
0.0183989
0.0177705
0.0170204
0.0161355
0.0151881
0.0141594
0.0130629
0.0119244
0.0107708
0.0096301
0.00852978
0.00749448
0.00654413
0.0056927
0.00494786
0.00431126
0.00377938
0.00334466
0.00299703
0.00272601
0.00251848
0.00234092
0.0021697
0.00227994
0.00361448
0.0195379
0.0192438
0.019077
0.0187912
0.0184061
0.017934
0.0173819
0.0167308
0.0159294
0.0150675
0.0141342
0.0131332
0.0120892
0.0110274
0.00997408
0.0089548
0.00799259
0.00710603
0.00630813
0.00560595
0.0050009
0.0044896
0.00406489
0.00371728
0.00343698
0.00321213
0.00301236
0.00281432
0.00287122
0.0040547
0.0188556
0.0184988
0.0183754
0.0181583
0.0178441
0.0174445
0.0169688
0.0164107
0.0157046
0.0149254
0.01409
0.0131881
0.012242
0.0112759
0.0103137
0.00937896
0.00849266
0.00767177
0.00692806
0.00626783
0.00569215
0.00519785
0.00477828
0.00442472
0.00412828
0.00387854
0.00364863
0.00341692
0.003414
0.00441571
0.0181065
0.0177088
0.017635
0.0174896
0.0172495
0.0169266
0.0165258
0.0160542
0.0154579
0.0147602
0.0140246
0.013226
0.0123824
0.0115168
0.0106509
0.0098053
0.00899882
0.00824628
0.00755789
0.00693897
0.00639014
0.00590854
0.0054882
0.00512146
0.00480068
0.00451714
0.00424781
0.00397447
0.00390413
0.00469262
0.0172684
0.01686
0.0168437
0.0167751
0.0166137
0.0163713
0.0160506
0.0156632
0.0151806
0.0145707
0.013936
0.0132454
0.0125097
0.0117507
0.0109871
0.0102366
0.00951478
0.00883388
0.0082021
0.00762354
0.00709826
0.0066239
0.00619552
0.00580688
0.00545204
0.00512433
0.00480511
0.00448136
0.00433512
0.00488093
0.01632
0.0159473
0.0159953
0.0160069
0.0159312
0.0157747
0.0155386
0.0152383
0.0148665
0.0143544
0.0138205
0.0132428
0.0126216
0.0119766
0.0113233
0.0106755
0.0100449
0.00944028
0.00886714
0.00832779
0.00782152
0.00734822
0.00690308
0.00648196
0.00608139
0.00569737
0.00531645
0.00493279
0.00470093
0.0049787
0.0152265
0.0150002
0.0151302
0.0152125
0.0152198
0.0151498
0.0149981
0.0147819
0.0145108
0.0141049
0.0136678
0.0132079
0.0127093
0.0121894
0.0116599
0.0111292
0.0106034
0.0100862
0.00957887
0.00908058
0.00858879
0.00811179
0.00763945
0.00717194
0.00670971
0.00625268
0.00579385
0.00533602
0.00500132
0.00498735
0.0137764
0.0139604
0.0142772
0.0144304
0.0145038
0.0145082
0.0144319
0.0142887
0.0141005
0.0138091
0.0134661
0.013129
0.0127662
0.0123902
0.0120076
0.0116189
0.0112217
0.0108114
0.0103832
0.00993241
0.00945562
0.00896244
0.00844571
0.00791087
0.00736346
0.00680887
0.00624789
0.0056913
0.00522213
0.00489845
0.0112776
0.0120814
0.0128888
0.0132918
0.0135195
0.0136575
0.0137079
0.0136824
0.0136109
0.0134729
0.0132609
0.0130686
0.0128591
0.0126375
0.0124034
0.0121489
0.0118627
0.0115345
0.0111549
0.0107218
0.0102405
0.00967467
0.00907823
0.00845036
0.00780056
0.00713985
0.00647628
0.0058258
0.00523041
0.00465792
0.00733329
0.00794044
0.00943156
0.0105329
0.0113292
0.0119586
0.0124478
0.0128092
0.0130716
0.01324
0.0132897
0.0132896
0.0132131
0.0130587
0.0128269
0.0125153
0.0121227