/*--------------------------------*- C++ -*----------------------------------*\
  =========                 |
  \\      /  F ield         | OpenFOAM: The Open Source CFD Toolbox
   \\    /   O peration     | Website:  https://openfoam.org
    \\  /    A nd           | Version:  12
     \\/     M anipulation  |
\*---------------------------------------------------------------------------*/
FoamFile
{
    format      ascii;
    class       surfaceScalarField;
    location    "80";
    object      phi;
}
// * * * * * * * * * * * * * * * * * * * * * * * * * * * * * * * * * * * * * //

dimensions      [0 3 -1 0 0 0 0];

internalField   nonuniform List<scalar> 
13275
(
0.369026
-0.00469125
0.369488
-0.0116538
0.369803
-0.0156319
0.369918
-0.0176108
-0.0182839
0.369858
0.3511
-0.00496606
0.351464
-0.0120178
0.351686
-0.0158534
0.351645
-0.0175705
-0.0178822
0.351244
0.334002
-0.00508893
0.334076
-0.0120917
0.333962
-0.0157403
0.333623
-0.0172306
-0.0173365
0.333077
0.31772
-0.00505769
0.317503
-0.0118753
0.317087
-0.0153243
0.316507
-0.0166507
-0.0166517
0.315823
0.302242
-0.00489759
0.301778
-0.0114114
0.301101
-0.0146471
0.300298
-0.0158484
-0.0158011
0.299448
0.28753
-0.00463291
0.286856
-0.0107381
0.285947
-0.0137377
0.284929
-0.0148306
-0.0147653
0.283894
0.273541
-0.00428124
0.272688
-0.00988474
0.27157
-0.0126199
0.270347
-0.0136075
-0.0135402
0.269122
0.260238
-0.00385655
0.25923
-0.00887759
0.257929
-0.011319
0.25652
-0.0121977
-0.0121364
0.255116
0.247587
-0.00337215
0.246453
-0.00774417
0.245
-0.00986533
0.24343
-0.0106286
-0.010577
0.241871
0.235558
-0.00284198
0.234328
-0.00651453
0.232757
-0.00829448
0.231065
-0.00893592
-0.00889488
0.229382
0.224122
-0.00228057
0.222828
-0.00522041
0.221179
-0.00664518
0.219403
-0.00715966
-0.00712884
0.217637
0.213252
-0.00170248
0.211925
-0.00389354
0.210237
-0.00495669
0.208419
-0.00534122
-0.00531954
0.206609
0.202921
-0.0011217
0.201591
-0.00256365
0.1999
-0.00326611
0.198079
-0.00351993
-0.00350612
0.196265
0.1931
-0.000550878
0.191794
-0.00125741
0.190134
-0.00160594
0.188344
-0.00173031
-0.00172341
0.186562
0.183765
-5.76944e-08
0.182508
-2.08457e-07
0.180902
-3.24475e-07
0.179172
-3.92061e-07
-4.2044e-07
0.177449
0.183765
0.000550762
0.182508
0.00125699
0.180902
0.00160529
0.179172
0.00172952
0.00172256
0.177449
0.1931
0.00112158
0.191794
0.00256323
0.190134
0.00326546
0.188344
0.00351914
0.00350528
0.186562
0.202921
0.00170236
0.201591
0.00389312
0.1999
0.00495605
0.198079
0.00534044
0.0053187
0.196265
0.213252
0.00228045
0.211925
0.00521999
0.210237
0.00664453
0.208419
0.00715888
0.007128
0.206609
0.224122
0.00284187
0.222828
0.00651411
0.221179
0.00829383
0.219403
0.00893514
0.00889404
0.217637
0.235558
0.00337204
0.234328
0.00774375
0.232757
0.00986468
0.231065
0.0106278
0.0105761
0.229382
0.247587
0.00385643
0.246453
0.00887716
0.245
0.0113183
0.243431
0.0121969
0.0121355
0.241871
0.260238
0.00428112
0.25923
0.00988432
0.257929
0.0126193
0.25652
0.0136068
0.0135394
0.255116
0.273541
0.00463279
0.272688
0.0107377
0.27157
0.0137371
0.270347
0.0148298
0.0147645
0.269122
0.28753
0.00489746
0.286856
0.011411
0.285947
0.0146464
0.284929
0.0158476
0.0158002
0.283894
0.302242
0.00505756
0.301778
0.0118749
0.301101
0.0153236
0.300298
0.0166498
0.0166508
0.299448
0.31772
0.00508879
0.317503
0.0120912
0.317087
0.0157396
0.316507
0.0172297
0.0173355
0.315823
0.334002
0.00496592
0.334076
0.0120173
0.333963
0.0158526
0.333623
0.0175696
0.0178812
0.333077
0.3511
0.00469111
0.351464
0.0116533
0.351686
0.0156312
0.351645
0.0176098
0.0182828
0.351244
0.369026
0.369488
0.369803
0.369919
0.369858
0.197739
-0.0511842
-0.197781
0.197312
-0.0584669
0.196261
-0.0647443
0.194568
-0.0702327
0.192294
-0.0748962
0.189512
-0.0786691
0.186299
-0.0814616
0.182736
-0.0831531
0.178916
-0.0836048
0.174949
-0.0827808
0.17093
-0.0804414
0.167016
-0.0765016
0.163356
-0.0710319
0.160093
-0.0641257
0.15736
-0.0559639
0.155265
-0.0468047
0.153877
-0.0369629
0.153231
-0.0267795
0.153318
-0.0165939
0.154097
-0.00671435
0.155491
0.00260915
0.15743
0.0111754
0.159812
0.018864
0.162538
0.0255906
0.165515
0.0313295
0.168656
0.0360929
0.171883
0.0399197
0.175126
0.0428651
0.178321
0.0449927
0.046356
0.181383
0.195117
-0.0512986
-0.195003
0.194432
-0.0577821
0.193044
-0.0633565
0.191057
-0.0682451
0.188551
-0.07239
0.185602
-0.0757206
0.182282
-0.0781416
0.178664
-0.0795352
0.174841
-0.0797813
0.170901
-0.0788413
0.166938
-0.0764783
0.1631
-0.072663
0.159519
-0.0674514
0.156329
-0.0609352
0.153648
-0.0532832
0.151574
-0.0447312
0.150174
-0.0355629
0.14948
-0.0260853
0.149488
-0.0166016
0.150161
-0.00738748
0.151447
0.00132277
0.153259
0.00936359
0.155519
0.0166046
0.158134
0.0229759
0.161015
0.0284481
0.16408
0.0330276
0.167255
0.0367453
0.170473
0.0396471
0.173668
0.0417973
0.0433115
0.176712
0.191799
-0.0510272
-0.19207
0.190804
-0.0567877
0.189198
-0.0617501
0.187062
-0.0661089
0.184466
-0.069794
0.181473
-0.0727278
0.178145
-0.0748132
0.174547
-0.075938
0.170776
-0.0760095
0.166898
-0.0749639
0.163014
-0.0725938
0.159258
-0.0689071
0.155754
-0.0639476
0.152624
-0.0578057
0.149981
-0.0506394
0.147914
-0.0426644
0.146488
-0.0341373
0.145737
-0.0253335
0.145659
-0.0165241
0.146227
-0.00795572
0.147387
0.000163138
0.149072
0.00767893
0.151201
0.0144752
0.153691
0.0204858
0.156458
0.0256816
0.159421
0.0300646
0.162507
0.0336589
0.165653
0.0365012
0.168798
0.038652
0.0402939
0.171816
0.188363
-0.0504063
-0.188984
0.187104
-0.0555294
0.185311
-0.0599562
0.183044
-0.0638427
0.180365
-0.0671151
0.17733
-0.069692
0.173994
-0.0714774
0.170421
-0.0723653
0.166702
-0.0722904
0.16289
-0.0711519
0.159089
-0.0687932
0.15542
-0.0652373
0.151994
-0.0605215
0.148923
-0.0547351
0.14631
-0.0480263
0.144239
-0.0405935
0.142771
-0.0326698
0.141941
-0.0245029
0.141752
-0.0163355
0.142184
-0.0083877
0.143191
-0.000844317
0.144717
0.00615335
0.146688
0.0125038
0.149029
0.0181453
0.15166
0.0230503
0.154506
0.0272186
0.157496
0.0306688
0.160568
0.0334297
0.163665
0.0355548
0.0372927
0.166666
0.184838
-0.0494856
-0.185758
0.183348
-0.0540396
0.181381
-0.0579895
0.178993
-0.0614543
0.176235
-0.0643577
0.173159
-0.0666161
0.169818
-0.0681364
0.166274
-0.0688207
0.162605
-0.0686211
0.158858
-0.0674056
0.15514
-0.0650748
0.151553
-0.0616507
0.148202
-0.0571698
0.145186
-0.0517195
0.142599
-0.0454397
0.14052
-0.0385141
0.139005
-0.0311551
0.138089
-0.0235869
0.137781
-0.0160271
0.138065
-0.00867198
0.138907
-0.00168596
0.140256
0.00480453
0.142049
0.0107099
0.14422
0.0159752
0.146695
0.0205753
0.149404
0.0245093
0.15228
0.0277925
0.155263
0.030447
0.158299
0.0325183
0.0343134
0.161279
0.181191
-0.0482943
-0.182383
0.179492
-0.0523398
0.177369
-0.0558671
0.174873
-0.058958
0.172048
-0.0615331
0.168941
-0.0635089
0.165601
-0.0647965
0.162089
-0.0653082
0.158467
-0.064999
0.154786
-0.0637248
0.151145
-0.0614342
0.147637
-0.0581425
0.144355
-0.0538874
0.14139
-0.0487549
0.138828
-0.0428776
0.13674
-0.0364261
0.13518
-0.0295953
0.134182
-0.0225885
0.133756
-0.0156017
0.133895
-0.00881016
0.134568
-0.00235985
0.135736
0.00363729
0.137343
0.00910271
0.13933
0.0139885
0.141632
0.0182731
0.144185
0.0219561
0.146927
0.0250507
0.1498
0.0275744
0.152753
0.0295653
0.0313754
0.155691
0.177404
-0.0468579
-0.178841
0.175517
-0.0504522
0.173258
-0.0536087
0.170669
-0.0563693
0.16779
-0.0586535
0.164661
-0.0603795
0.161327
-0.0614631
0.157849
-0.0618303
0.154273
-0.0614222
0.150656
-0.0601084
0.147089
-0.057867
0.143654
-0.0547074
0.140436
-0.0506698
0.13752
-0.0458385
0.134982
-0.0403396
0.132888
-0.0343322
0.131289
-0.0279958
0.130216
-0.0215156
0.129682
-0.0150682
0.129682
-0.00881059
0.130195
-0.0028722
0.131184
0.00264843
0.132603
0.00768303
0.134401
0.0121907
0.13652
0.0161539
0.138903
0.0195735
0.141492
0.0224619
0.144233
0.0248334
0.147078
0.0267203
0.0285043
0.149949
0.173467
-0.0452039
-0.175121
0.171416
-0.0484013
0.169041
-0.0512335
0.166375
-0.0537033
0.163452
-0.0557304
0.160309
-0.0572362
0.156986
-0.0581404
0.153541
-0.0583856
0.15001
-0.0578907
0.146456
-0.0565546
0.142958
-0.0543688
0.139592
-0.051341
0.136435
-0.0475133
0.133565
-0.0429686
0.131052
-0.0378268
0.128957
-0.0322369
0.127325
-0.0263643
0.126188
-0.0203782
0.125558
-0.0144385
0.125433
-0.0086855
0.125795
-0.00323411
0.126614
0.00182929
0.127852
0.00644584
0.129461
0.0105813
0.131393
0.0142221
0.133595
0.0173711
0.136017
0.0200403
0.138608
0.0222425
0.141322
0.0240058
0.0257267
0.1441
0.169377
-0.0433612
-0.17122
0.167187
-0.0462112
0.164713
-0.04876
0.161984
-0.0509736
0.159026
-0.0527733
0.155875
-0.054085
0.152569
-0.054834
0.149157
-0.0549733
0.14567
-0.0544043
0.142176
-0.0530606
0.138743
-0.0509358
0.135441
-0.0480394
0.132343
-0.0444153
0.129519
-0.0401446
0.127034
-0.0353415
0.124943
-0.0301454
0.123288
-0.0247094
0.122098
-0.019188
0.121385
-0.0137261
0.121149
-0.00844936
0.121375
-0.00345968
0.122036
0.00116743
0.123101
0.00538158
0.124527
0.0091546
0.126273
0.0124768
0.128291
0.0153528
0.130536
0.0177951
0.132963
0.0198157
0.135529
0.0214401
0.0230667
0.138189
0.16513
-0.041358
-0.167133
0.162823
-0.0439049
0.160269
-0.0462053
0.157488
-0.0481926
0.154505
-0.0497911
0.151352
-0.0509317
0.148066
-0.0515478
0.144685
-0.0515921
0.141244
-0.0509633
0.137807
-0.0496237
0.134436
-0.0475652
0.131197
-0.0448003
0.128156
-0.0413745
0.125379
-0.0373671
0.122924
-0.0328868
0.120843
-0.0280641
0.119174
-0.0230403
0.117943
-0.017957
0.117162
-0.0129452
0.11683
-0.00811764
0.116935
-0.00356456
0.117454
0.000648162
0.118358
0.00447762
0.119612
0.00790106
0.121176
0.0109122
0.123011
0.0135177
0.125076
0.0157303
0.12733
0.017562
0.129733
0.0190371
0.020545
0.132255
0.160724
-0.0392213
-0.16286
0.158322
-0.0415036
0.155702
-0.0435851
0.152882
-0.0453721
0.149883
-0.0467924
0.146732
-0.0477813
0.143469
-0.0482841
0.140118
-0.0482419
0.136724
-0.0475687
0.133343
-0.0462426
0.130033
-0.0442551
0.126855
-0.0416222
0.123871
-0.0383907
0.121142
-0.0346378
0.118721
-0.0304668
0.116657
-0.0259995
0.114983
-0.0213665
0.113723
-0.0166972
0.112888
-0.0121099
0.112476
-0.00770597
0.112477
-0.00356501
0.112869
0.000255557
0.113628
0.00371942
0.11472
0.0068085
0.116113
0.00951959
0.11777
0.0118608
0.119655
0.0138454
0.121731
0.0154857
0.123963
0.0168054
0.0181772
0.12633
0.156156
-0.0369761
-0.158401
0.153679
-0.0390265
0.151008
-0.0409139
0.148159
-0.0425226
0.145151
-0.0437845
0.142009
-0.0446397
0.138769
-0.0450437
0.135452
-0.0449247
0.132104
-0.0442213
0.128778
-0.0429166
0.125528
-0.0410048
0.122411
-0.0385051
0.119485
-0.035465
0.116806
-0.0319594
0.114426
-0.028086
0.112385
-0.0239585
0.110716
-0.0196973
0.109438
-0.0154201
0.108563
-0.0112341
0.108086
-0.00722968
0.107999
-0.00347724
0.108281
-2.66716e-05
0.108909
0.00309143
0.109854
0.00586299
0.111087
0.00828732
0.112574
0.0103738
0.114283
0.0121359
0.116182
0.0135864
0.118239
0.0147491
0.015974
0.120442
0.151425
-0.0346453
-0.153755
0.148889
-0.036491
0.14618
-0.0382047
0.143311
-0.0396541
0.140301
-0.0407747
0.137175
-0.041513
0.133959
-0.0418279
0.130678
-0.0416437
0.127378
-0.0409217
0.124108
-0.0396461
0.120918
-0.0378149
0.117863
-0.03545
0.114997
-0.0325994
0.112373
-0.0293351
0.110037
-0.0257496
0.108027
-0.0219484
0.106371
-0.0180419
0.105088
-0.0141372
0.104185
-0.0103309
0.103659
-0.0067034
0.103498
-0.00331693
0.103686
-0.000214634
0.1042
0.00257782
0.105013
0.00504971
0.106098
0.00720234
0.107426
0.00904597
0.108968
0.0105942
0.110694
0.0118601
0.112575
0.0128678
0.0139409
0.114608
0.146524
-0.0322494
-0.14892
0.143945
-0.0339122
0.141211
-0.03547
0.138333
-0.0367762
0.135328
-0.0377697
0.132221
-0.0384062
0.129032
-0.038639
0.125791
-0.0384025
0.122541
-0.037672
0.119328
-0.0364329
0.1162
-0.0346871
0.113209
-0.0324592
0.110407
-0.0297969
0.107841
-0.0267693
0.105555
-0.0234633
0.103582
-0.0199763
0.10195
-0.0164093
0.100672
-0.0128592
0.0997534
-0.00941254
0.099191
-0.00614097
0.0989731
-0.00309899
0.0990823
-0.000323882
0.0994972
0.00216294
0.100193
0.00435351
0.101145
0.00625066
0.102326
0.00786514
0.10371
0.00921049
0.10527
0.0102999
0.10698
0.0111577
0.0120791
0.108842
0.141448
-0.0298065
-0.143891
0.13884
-0.0313045
0.136092
-0.0327216
0.133213
-0.0338981
0.130221
-0.0347773
0.127138
-0.0353232
0.123981
-0.0354814
0.120783
-0.0352051
0.117586
-0.0344751
0.114433
-0.0332795
0.11137
-0.0316244
0.108447
-0.029536
0.105711
-0.0270614
0.103209
-0.0242668
0.100979
-0.0212329
0.0990517
-0.0180494
0.0974505
-0.0148081
0.0961874
-0.0115961
0.0952657
-0.00849077
0.09468
-0.00555531
0.0944184
-0.00283742
0.0944637
-0.00036916
0.0947949
0.0018317
0.095389
0.00375942
0.0962217
0.00541794
0.0972687
0.00681814
0.098506
0.00797325
0.0999095
0.00889634
0.101455
0.00961185
0.010386
0.103148
0.136186
-0.0273324
-0.13866
0.133564
-0.0286824
0.130813
-0.0299708
0.127944
-0.0310288
0.124972
-0.0318058
0.121916
-0.0322677
0.118796
-0.0323612
0.115647
-0.0320561
0.112507
-0.0313348
0.109417
-0.0301899
0.106424
-0.0286306
0.103572
-0.0266846
0.100909
-0.0243979
0.0984748
-0.021833
0.0963068
-0.0190648
0.0944325
-0.0161751
0.0928711
-0.0132467
0.0916327
-0.0103577
0.0907183
-0.00757636
0.0901214
-0.00495839
0.0898292
-0.00254522
0.0898243
-0.000364275
0.0900862
0.00156978
0.0905926
0.003253
0.0913206
0.00468998
0.0922472
0.00589147
0.0933504
0.00687013
0.0946079
0.00763879
0.0959983
0.00822151
0.00885594
0.0975283
0.130727
-0.0248422
-0.133217
0.128104
-0.02606
0.125362
-0.0272289
0.122511
-0.0281771
0.119567
-0.0288618
0.116544
-0.0292455
0.113469
-0.0292853
0.110373
-0.0289607
0.107295
-0.0282564
0.104274
-0.0271691
0.101354
-0.0257109
0.0985802
-0.0239103
0.0959941
-0.0218118
0.0936351
-0.019474
0.0915359
-0.0169656
0.0897215
-0.0143607
0.0882081
-0.0117334
0.0870034
-0.00915292
0.0861064
-0.00667937
0.0855093
-0.00436126
0.0851984
-0.00223438
0.0851561
-0.000322002
0.0853621
0.00136382
0.0857946
0.00282051
0.0864315
0.00405303
0.0872513
0.0050717
0.088233
0.00588842
0.0893563
0.00651555
0.0906013
0.00697642
0.00748114
0.0919762
0.125056
-0.0223511
-0.127547
0.122446
-0.0234506
0.119724
-0.0245065
0.1169
-0.025353
0.11399
-0.0259521
0.111009
-0.0262643
0.107985
-0.0262612
0.10495
-0.0259257
0.10194
-0.0252463
0.0989942
-0.0242235
0.0961548
-0.0228716
0.093464
-0.0212194
0.0909617
-0.0193096
0.088684
-0.0171963
0.0866605
-0.0149421
0.0849132
-0.0126134
0.0834557
-0.0102759
0.0822932
-0.00799039
0.081423
-0.00580914
0.0808358
-0.00377408
0.0805173
-0.00191584
0.0804493
-0.000254056
0.0806117
0.00120146
0.080983
0.00244916
0.081542
0.00349406
0.0822678
0.00434584
0.0831408
0.00501547
0.0841417
0.00551464
0.0852526
0.00586555
0.00625227
0.0864814
0.119155
-0.0198751
-0.121631
0.11657
-0.0208659
0.113878
-0.0218144
0.111091
-0.0225666
0.108224
-0.0230845
0.105294
-0.0233341
0.10233
-0.0232972
0.0993629
-0.0229589
0.0964286
-0.0223121
0.0935655
-0.0213604
0.0908138
-0.0201199
0.0882135
-0.0186191
0.0858021
-0.0168982
0.0836128
-0.0150069
0.0816722
-0.0130015
0.0799994
-0.0109406
0.0786055
-0.00888199
0.0774933
-0.00687819
0.0766584
-0.0049743
0.0760904
-0.00320612
0.0757742
-0.00159957
0.0756912
-0.000171072
0.0758212
0.00107144
0.0761432
0.00212717
0.0766363
0.00300095
0.0772805
0.00370163
0.0780569
0.00423909
0.0789474
0.00462419
0.0799352
0.00487768
0.00515921
0.0810283
0.112997
-0.0174297
-0.115442
0.110449
-0.0183186
0.107799
-0.0191646
0.105061
-0.0198279
0.102246
-0.0202693
0.099377
-0.0204656
0.0964827
-0.0204028
0.0935934
-0.0200697
0.0907441
-0.0194628
0.0879723
-0.0185886
0.0853167
-0.0174643
0.0828151
-0.0161175
0.0805026
-0.0145857
0.0784093
-0.0129136
0.076559
-0.0111512
0.0749681
-0.00934978
0.0736452
-0.00755901
0.0725909
-0.00582395
0.0717995
-0.00418283
0.0712592
-0.00266581
0.0709541
-0.00129454
0.0708657
-8.25986e-05
0.0709734
0.000963655
0.0712567
0.0018439
0.071695
0.00256263
0.072269
0.0031277
0.0729602
0.00354783
0.0737516
0.00383285
0.0746275
0.00400177
0.00419165
0.075595
0.106547
-0.0150308
-0.108946
0.10405
-0.015822
0.101457
-0.0165707
0.0987765
-0.017148
0.0960268
-0.0175196
0.0932317
-0.0176705
0.0904182
-0.0175893
0.0876173
-0.0172688
0.0848635
-0.016709
0.0821933
-0.0159183
0.0796435
-0.0149146
0.07725
-0.013724
0.0750451
-0.0123807
0.0730561
-0.0109247
0.071304
-0.00939916
0.0698026
-0.00784834
0.0685579
-0.00631433
0.0675689
-0.00483497
0.0668282
-0.00344213
0.0663232
-0.00216078
0.0660374
-0.00100874
0.0659519
2.92031e-06
0.0660464
0.000869153
0.0663004
0.00158993
0.0666938
0.00216923
0.0672076
0.00261384
0.0678242
0.00293124
0.0685269
0.00313011
0.0693012
0.00322747
0.00333956
0.0701533
0.0997602
-0.0126955
-0.102095
0.0973308
-0.0133927
0.0948067
-0.0140465
0.0921995
-0.0145408
0.0895298
-0.0148498
0.0868214
-0.0149621
0.0841019
-0.0148698
0.0814022
-0.0145692
0.0787564
-0.0140631
0.0761996
-0.0133616
0.0737671
-0.0124821
0.0714923
-0.0114492
0.0694048
-0.0102933
0.0675293
-0.0090491
0.0658838
-0.0077537
0.0644796
-0.00644409
0.0633204
-0.00515522
0.0624037
-0.00391818
0.0617205
-0.00275898
0.0612576
-0.00169786
0.060998
-0.000749182
0.0609228
7.81845e-05
0.0610117
0.000780258
0.0612445
0.00135714
0.0616015
0.00181222
0.0620642
0.00215114
0.0626153
0.00238013
0.0632388
0.00250662
0.0639208
0.00254543
0.00259371
0.0646667
0.0925758
-0.0104431
-0.0948281
0.0902313
-0.0110482
0.0877929
-0.0116082
0.0852762
-0.0120242
0.0827029
-0.0122765
0.0800972
-0.0123565
0.0774874
-0.0122599
0.0749043
-0.0119861
0.0723812
-0.01154
0.069952
-0.0109324
0.0676501
-0.0101802
0.0655063
-0.00930536
0.0635475
-0.00833455
0.0617956
-0.00729717
0.0602659
-0.00622396
0.058967
-0.00514517
0.0579008
-0.00408901
0.0570629
-0.00308031
0.0564436
-0.00213967
0.0560288
-0.00128308
0.0558014
-0.000521832
0.0557425
0.000137119
0.0558321
0.000690664
0.0560503
0.00113892
0.0563779
0.00148462
0.0567968
0.00173228
0.0572901
0.00188685
0.0578422
0.00195448
0.0584399
0.00194769
0.00194611
0.0590875
0.08491
-0.00829584
-0.0870573
0.0826699
-0.00880806
0.0803381
-0.00927631
0.0779324
-0.00961847
0.0754751
-0.00981918
0.0729917
-0.00987307
0.0705106
-0.00977881
0.0680628
-0.00953826
0.0656805
-0.00915767
0.0633961
-0.00864802
0.0612406
-0.00802475
0.0592425
-0.00730722
0.0574257
-0.00651776
0.0558091
-0.00568051
0.0544052
-0.00482011
0.0532204
-0.0039604
0.0522547
-0.00312329
0.0515023
-0.00232789
0.0509526
-0.00158995
0.0505911
-0.000921629
0.0504008
-0.000331534
0.0503629
0.000175025
0.0504579
0.000595644
0.0506665
0.000930379
0.0509698
0.00118128
0.0513503
0.00135178
0.0517916
0.00144563
0.0522783
0.00146769
0.0527979
0.00142811
0.00139047
0.0533536
0.0766417
-0.00627854
-0.078659
0.0745315
-0.0066978
0.0723319
-0.00707673
0.0700621
-0.00734862
0.0677456
-0.0075027
0.0654089
-0.00753643
0.0630809
-0.0074508
0.060792
-0.00724932
0.0585732
-0.00693885
0.0564549
-0.00652978
0.0544659
-0.00603568
0.0526314
-0.00547272
0.0509725
-0.00485886
0.049505
-0.004213
0.0482388
-0.00355396
0.047178
-0.00289961
0.0463208
-0.00226612
0.0456604
-0.00166746
0.0451855
-0.00111507
0.0448817
-0.000617764
0.0447319
-0.00018182
0.0447181
0.000188845
0.0448214
0.000492389
0.045023
0.000728753
0.0453049
0.000899343
0.0456501
0.00100657
0.0460426
0.00105313
0.0464677
0.00104262
0.046913
0.000982867
0.000922786
0.0473806
0.0675933
-0.00442366
-0.0694481
0.0656458
-0.00475036
0.0636108
-0.00504166
0.0615092
-0.00524702
0.0593661
-0.00535966
0.0572089
-0.00537922
0.0550662
-0.00530808
0.0529674
-0.00515056
0.050942
-0.00491339
0.0490179
-0.00460569
0.0472208
-0.00423861
0.0455729
-0.00382485
0.044092
-0.00337798
0.0427909
-0.00291182
0.0416767
-0.00243977
0.0407513
-0.00197428
0.0400117
-0.00152643
0.0394499
-0.00110569
0.0390546
-0.000719769
0.0388115
-0.000374639
0.0387042
-7.45935e-05
0.0387155
0.000177603
0.0388273
0.000380558
0.039022
0.000534074
0.0392824
0.000638965
0.0395922
0.000696763
0.0399361
0.000709212
0.0402999
0.000678837
0.0406715
0.000611248
0.00054195
0.0410523
0.0574868
-0.00277422
-0.0591363
0.055746
-0.00300947
0.0539204
-0.00321612
0.0520331
-0.0033597
0.0501101
-0.00343667
0.0481787
-0.00344785
0.0462668
-0.00339616
0.0444021
-0.00328587
0.0426115
-0.0031228
0.0409201
-0.00291421
0.0393499
-0.00266847
0.0379197
-0.00239461
0.0366436
-0.00210191
0.0355312
-0.00179945
0.0345872
-0.00149577
0.0338115
-0.00119859
0.0331998
-0.000914655
0.0327437
-0.000649654
0.0324322
-0.000408218
0.0322515
-0.00019396
0.0321865
-9.54711e-06
0.0322209
0.000143181
0.0323382
0.000263216
0.0325221
0.000350223
0.0327565
0.000404514
0.0330264
0.000426877
0.0333173
0.00041829
0.0336158
0.00038037
0.0339103
0.000316738
0.000250693
0.0342016
0.0458617
-0.00139396
-0.0472419
0.0443941
-0.00154192
0.0428478
-0.00166975
0.0412461
-0.00175806
0.039615
-0.0018055
0.0379803
-0.00181324
0.0363681
-0.00178387
0.0348031
-0.00172088
0.0333088
-0.00162854
0.0319064
-0.0015118
0.0306139
-0.00137596
0.0294457
-0.00122646
0.0284124
-0.00106856
0.0275201
-0.000907195
0.0267711
-0.000746792
0.0261638
-0.000591233
0.025693
-0.000443816
0.0253506
-0.000307288
0.0251263
-0.000183899
0.0250078
-7.54542e-05
0.0249815
1.66792e-05
0.0250333
9.14559e-05
0.0251483
0.000148138
0.0253122
0.000186354
0.0255107
0.000206048
0.0257301
0.00020743
0.0259575
0.000190885
0.0261806
0.000157296
0.0263887
0.000108597
5.7266e-05
0.0265822
0.0318955
-0.000395739
-0.0328938
0.0308197
-0.000466087
0.0296754
-0.000525438
0.0284834
-0.000566068
0.0272664
-0.000588466
0.0260471
-0.000593972
0.0248477
-0.000584491
0.023689
-0.000562118
0.0225895
-0.000529087
0.0215654
-0.000487699
0.0206297
-0.000440216
0.019792
-0.000388767
0.0190587
-0.000335273
0.0184329
-0.000281409
0.0179147
-0.000228589
0.0175014
-0.000177983
0.0171882
-0.000130549
0.0169679
-8.70725e-05
0.0168323
-4.82224e-05
0.0167716
-1.47465e-05
0.016775
1.32468e-05
0.016831
3.54929e-05
0.016928
5.11235e-05
0.0170543
6.0047e-05
0.0171983
6.20648e-05
0.0173487
5.70146e-05
0.0174948
4.47559e-05
0.0176268
2.53157e-05
0.0177366
-1.24051e-06
-2.84719e-05
0.0178224
0.0140645
-0.0144602
0.0135984
0.0130729
0.0125069
0.0119184
0.0113244
0.0107399
0.0101778
0.00964874
0.00916104
0.00872082
0.00833206
0.00799678
0.00771537
0.00748679
0.0073088
0.00717825
0.00709118
0.00704296
0.00702821
0.00704146
0.00707695
0.00712808
0.00718812
0.00725019
0.0073072
0.00735196
0.00737727
0.00737603
0.00734756
0.351207
-0.17913
0.333801
-0.177597
0.317024
-0.175293
0.300749
-0.172709
0.284869
-0.169878
0.269298
-0.166811
0.25398
-0.163523
0.238886
-0.160027
0.224001
-0.156334
0.209319
-0.152451
0.194845
-0.148386
0.180588
-0.144145
0.166564
-0.139731
0.152791
-0.135148
0.139293
-0.130392
0.126095
-0.125462
0.113225
-0.120347
0.100715
-0.115036
0.0885971
-0.109513
0.07691
-0.103755
0.0656946
-0.0977306
0.0549986
-0.0913994
0.0448768
-0.0847063
0.0353946
-0.0775752
0.0266334
-0.0698978
0.0186992
-0.061514
0.0117404
-0.0521775
0.00598335
-0.0414849
0.0018267
-0.0287371
-0.0126335
0.334608
-0.162495
0.318126
-0.161114
0.30206
-0.159227
0.286341
-0.15699
0.270912
-0.154449
0.255738
-0.151638
0.240801
-0.148586
0.226091
-0.145317
0.211604
-0.141847
0.197345
-0.138192
0.183325
-0.134365
0.169556
-0.130376
0.156055
-0.126231
0.142842
-0.121935
0.129938
-0.117488
0.117365
-0.112889
0.10515
-0.108131
0.0933175
-0.103204
0.0818986
-0.0980943
0.0709253
-0.0927814
0.0604336
-0.0872389
0.0504648
-0.0814306
0.041067
-0.0753086
0.032298
-0.0688062
0.02423
-0.0618297
0.0169582
-0.0542422
0.0106161
-0.0458354
0.0054062
-0.036275
0.00166919
-0.0250001
-0.0109643
0.317319
-0.146737
0.301732
-0.145527
0.2864
-0.143895
0.271313
-0.141903
0.256456
-0.139592
0.241822
-0.137004
0.227407
-0.134171
0.213214
-0.131123
0.19925
-0.127883
0.185525
-0.124468
0.172055
-0.120895
0.158855
-0.117176
0.145943
-0.113319
0.133338
-0.10933
0.121061
-0.105211
0.109132
-0.10096
0.0975743
-0.0965736
0.0864127
-0.0920426
0.075673
-0.0873546
0.0653841
-0.0824926
0.0555782
-0.0774329
0.046292
-0.0721444
0.0375684
-0.066585
0.0294593
-0.0606971
0.0220298
-0.0544003
0.0153658
-0.0475782
0.00958721
-0.0400567
0.00487321
-0.031561
0.0015141
-0.021641
-0.00945022
0.300827
-0.131742
0.285966
-0.130666
0.271275
-0.129204
0.256764
-0.127392
0.242442
-0.125271
0.22832
-0.122882
0.21441
-0.120261
0.200724
-0.117437
0.187276
-0.114435
0.174084
-0.111276
0.161163
-0.107974
0.148531
-0.104544
0.136205
-0.100993
0.124205
-0.0973291
0.112547
-0.0935532
0.101252
-0.0896652
0.0903398
-0.0856614
0.0798318
-0.0815345
0.0697511
-0.0772739
0.0601231
-0.0728646
0.0509765
-0.0682863
0.0423437
-0.0635117
0.0342632
-0.0585045
0.0267815
-0.0532154
0.0199572
-0.0475759
0.0138672
-0.0414882
0.00861839
-0.0348079
0.00436731
-0.0273099
0.00135883
-0.0186325
-0.00809139
0.285085
-0.117379
0.27082
-0.116401
0.256681
-0.115066
0.242694
-0.113404
0.22888
-0.111456
0.215259
-0.109261
0.201852
-0.106854
0.188678
-0.104263
0.175755
-0.101512
0.163102
-0.098622
0.150735
-0.0956077
0.138673
-0.0924815
0.126932
-0.0892524
0.115529
-0.085926
0.104481
-0.0825049
0.0938044
-0.0789888
0.0835178
-0.0753748
0.07364
-0.0716567
0.0641914
-0.0678254
0.0551945
-0.0638677
0.0466744
-0.0597662
0.0386602
-0.0554975
0.0311862
-0.0510305
0.024294
-0.0463232
0.0180361
-0.041318
0.0124811
-0.0359332
0.00772302
-0.0300498
0.0038974
-0.0234843
0.00120977
-0.0159449
-0.00688162
0.270067
-0.103552
0.256321
-0.102655
0.242687
-0.101432
0.229195
-0.0999126
0.215875
-0.098136
0.202752
-0.0961387
0.18985
-0.0939527
0.177192
-0.0916049
0.164798
-0.0891178
0.152685
-0.0865095
0.140872
-0.0837948
0.129376
-0.0809846
0.11821
-0.0780872
0.107392
-0.0751077
0.0969357
-0.0720486
0.0868567
-0.0689098
0.0771708
-0.0656888
0.0678945
-0.0623805
0.0590459
-0.0589768
0.0506448
-0.0554666
0.0427136
-0.0518349
0.035278
-0.0480619
0.0283688
-0.0441213
0.0220231
-0.0399775
0.0162876
-0.0355826
0.0112232
-0.0308688
0.00691206
-0.0257387
0.00347072
-0.0200429
0.00107188
-0.013546
-0.00580975
0.255777
-0.0902083
0.242511
-0.0893882
0.229356
-0.0882764
0.216346
-0.0869032
0.203514
-0.0853041
0.190888
-0.0835127
0.178494
-0.081558
0.166353
-0.079464
0.154486
-0.0772509
0.142911
-0.0749348
0.131645
-0.0725288
0.120703
-0.0700426
0.110099
-0.0674834
0.0998475
-0.0648558
0.0899609
-0.062162
0.0804532
-0.059402
0.071338
-0.0565737
0.0626301
-0.0536726
0.0543453
-0.050692
0.0465011
-0.0476224
0.0391175
-0.0444513
0.0322173
-0.0411618
0.0258279
-0.0377318
0.0199824
-0.034132
0.0147223
-0.0303225
0.0101013
-0.0262478
0.00619097
-0.0218283
0.0030914
-0.0169434
0.000948291
-0.0114029
-0.00486146
0.24223
-0.0773222
0.229426
-0.0765843
0.21674
-0.0755908
0.204209
-0.0743717
0.191864
-0.0729594
0.179735
-0.0713835
0.167846
-0.0696694
0.15622
-0.067838
0.144876
-0.0659067
0.133831
-0.0638896
0.1231
-0.0617978
0.112697
-0.0596398
0.102635
-0.0574216
0.0929264
-0.0551472
0.0835827
-0.0528183
0.0746158
-0.0504351
0.066038
-0.0479958
0.057862
-0.0454966
0.0501018
-0.0429318
0.0427731
-0.0402937
0.0358934
-0.0375716
0.0294832
-0.0347516
0.0235669
-0.0318155
0.0181739
-0.0287391
0.0133411
-0.0254897
0.00911571
-0.0220223
0.00556007
-0.0182727
0.0027604
-0.0141437
0.000840334
-0.00948285
-0.00402112
0.229436
-0.0648871
0.217091
-0.0642395
0.204874
-0.0633739
0.192821
-0.0623185
0.180964
-0.0611021
0.16933
-0.0597499
0.157944
-0.0582835
0.146827
-0.0567207
0.135996
-0.055076
0.125468
-0.0533612
0.115256
-0.0515857
0.105373
-0.0497564
0.0958293
-0.0478784
0.086637
-0.0459549
0.0778061
-0.0439874
0.069347
-0.0419761
0.0612705
-0.0399193
0.0535879
-0.037814
0.0463117
-0.0356556
0.0394556
-0.0334376
0.0330354
-0.0311514
0.0270694
-0.0287856
0.0215792
-0.0263253
0.0165913
-0.0237511
0.0121382
-0.0210366
0.00826157
-0.0181457
0.00501607
-0.0150272
0.00247628
-0.0116039
0.000748017
-0.00775458
-0.0032731
0.217401
-0.0529057
0.205519
-0.052357
0.193773
-0.0516283
0.182199
-0.050745
0.170829
-0.0497315
0.159688
-0.0486087
0.148799
-0.0473943
0.138181
-0.0461027
0.12785
-0.0447459
0.117823
-0.0433334
0.10811
-0.0418726
0.0987225
-0.0403693
0.0896716
-0.0388275
0.0809665
-0.0372498
0.0726164
-0.0356373
0.0646306
-0.0339902
0.0570185
-0.0323072
0.0497904
-0.0305858
0.0429571
-0.0288224
0.0365312
-0.0270117
0.0305266
-0.0251468
0.0249597
-0.0232187
0.01985
-0.0212157
0.0152212
-0.0191223
0.0111023
-0.0169177
0.00753016
-0.0145736
0.00455301
-0.01205
0.00223593
-0.00928683
0.000670492
-0.00618915
-0.00260261
0.206116
-0.0413846
0.1947
-0.0409419
0.183429
-0.0403569
0.172335
-0.0396515
0.161449
-0.0388451
0.150794
-0.0379541
0.140393
-0.0369926
0.130262
-0.0359717
0.120416
-0.0349008
0.11087
-0.0337871
0.101634
-0.0326367
0.0927187
-0.0314537
0.0841326
-0.0302414
0.0758845
-0.0290017
0.0679827
-0.0277356
0.0604355
-0.026443
0.0532513
-0.025123
0.0464392
-0.0237737
0.0400092
-0.0223923
0.0339722
-0.0209747
0.0283412
-0.0195157
0.0231307
-0.0180083
0.0183585
-0.0164435
0.0140458
-0.0148095
0.0102187
-0.0130906
0.00691021
-0.0112652
0.00416319
-0.00930303
0.00203515
-0.00715878
0.000606402
-0.0047604
-0.00199621
0.195555
-0.0303306
0.184612
-0.0299983
0.173816
-0.0295612
0.163201
-0.0290361
0.152793
-0.0284376
0.142617
-0.0277777
0.132691
-0.0270667
0.123032
-0.0263128
0.113654
-0.0255228
0.104569
-0.024702
0.0957867
-0.0238547
0.0873169
-0.022984
0.0791677
-0.0220922
0.0713467
-0.0211807
0.0638614
-0.0202502
0.0567192
-0.0193008
0.0499277
-0.0183316
0.0434953
-0.0173413
0.0374309
-0.0163279
0.0317445
-0.0152884
0.0264479
-0.014219
0.0215544
-0.0131148
0.01708
-0.0119691
0.0130441
-0.0107736
0.00947047
-0.00951694
0.00638893
-0.00818365
0.003838
-0.0067521
0.00186917
-0.00518996
0.000554133
-0.00344537
-0.00144208
0.185683
-0.0197483
0.175213
-0.0195283
0.164892
-0.0192399
0.15475
-0.0188944
0.144814
-0.0185013
0.135105
-0.0180687
0.125641
-0.017603
0.116438
-0.0171097
0.107508
-0.0165931
0.098863
-0.0160567
0.0905115
-0.0155032
0.0824622
-0.0149347
0.0747227
-0.0143526
0.0672999
-0.013758
0.0602007
-0.0131511
0.0534319
-0.0125319
0.0470005
-0.0119002
0.040914
-0.0112548
0.0351807
-0.0105946
0.0298098
-0.00991754
0.0248121
-0.00922127
0.0201999
-0.00850254
0.0159879
-0.00775716
0.012194
-0.00697969
0.00883991
-0.00616286
0.00595303
-0.00529676
0.00356849
-0.00436756
0.00173309
-0.00335456
0.000511994
-0.00222427
-0.000930083
0.176452
-0.009639
0.166455
-0.00953061
0.156604
-0.00938877
0.146928
-0.00921917
0.137454
-0.00902645
0.128199
-0.00881447
0.119183