/*--------------------------------*- C++ -*----------------------------------*\
  =========                 |
  \\      /  F ield         | OpenFOAM: The Open Source CFD Toolbox
   \\    /   O peration     | Website:  https://openfoam.org
    \\  /    A nd           | Version:  12
     \\/     M anipulation  |
\*---------------------------------------------------------------------------*/
FoamFile
{
    format      ascii;
    class       volScalarField;
    location    "80";
    object      pMean;
}
// * * * * * * * * * * * * * * * * * * * * * * * * * * * * * * * * * * * * * //

dimensions      [0 2 -2 0 0 0 0];

internalField   nonuniform List<scalar> 
6750
(
-0.0201538
-0.0201926
-0.0202745
-0.0204836
-0.0213245
-0.0180805
-0.018088
-0.0181781
-0.0184058
-0.0186991
-0.0158107
-0.0158374
-0.0159299
-0.0160924
-0.0162008
-0.0135083
-0.0135696
-0.0136566
-0.0137634
-0.0138011
-0.0112588
-0.0113633
-0.0114586
-0.0115357
-0.0115347
-0.00914094
-0.00929294
-0.00940625
-0.00946881
-0.00944609
-0.00720407
-0.00740464
-0.00753915
-0.00759301
-0.00755577
-0.005478
-0.00572631
-0.00588178
-0.0059286
-0.00587965
-0.00398119
-0.00427477
-0.00444929
-0.00448927
-0.00443023
-0.00272332
-0.00305822
-0.00324893
-0.00328203
-0.00321439
-0.00170622
-0.00207721
-0.00228069
-0.0023071
-0.00223245
-0.000924507
-0.00132549
-0.00153794
-0.00155821
-0.00147827
-0.000366202
-0.000791169
-0.00100822
-0.00102332
-0.000939931
-1.40859e-05
-0.000457466
-0.000673477
-0.000685546
-0.000600814
0.000148345
-0.000300843
-0.000511328
-0.000524828
-0.000441133
0.000148923
-0.000300259
-0.000510723
-0.000524218
-0.000440521
-1.23441e-05
-0.000455705
-0.000671685
-0.000683729
-0.000598983
-0.0003633
-0.000788239
-0.00100524
-0.0010203
-0.000936888
-0.00092046
-0.00132141
-0.00153381
-0.00155401
-0.00147404
-0.00170105
-0.002072
-0.00227542
-0.00230176
-0.00222707
-0.00271706
-0.00305192
-0.00324255
-0.00327558
-0.0032079
-0.00397387
-0.00426741
-0.00444185
-0.00448175
-0.00442267
-0.00546969
-0.00571794
-0.00587332
-0.00592002
-0.005871
-0.00719481
-0.00739532
-0.00752972
-0.00758345
-0.00754613
-0.00913083
-0.00928276
-0.00939596
-0.00945839
-0.00943561
-0.0112479
-0.0113524
-0.0114476
-0.0115245
-0.0115235
-0.0134968
-0.013558
-0.0136449
-0.0137516
-0.0137893
-0.0157986
-0.0158252
-0.0159177
-0.0160801
-0.0161885
-0.018068
-0.0180754
-0.0181655
-0.0183932
-0.0186866
-0.0201409
-0.0201797
-0.0202615
-0.0204707
-0.0213116
-0.0262463
-0.0258569
-0.0247738
-0.0240057
-0.0234706
-0.0230481
-0.0227075
-0.0224248
-0.0221755
-0.0219614
-0.0217522
-0.0215233
-0.0212819
-0.0210273
-0.0207634
-0.0204983
-0.020242
-0.0200039
-0.0197932
-0.0196132
-0.019451
-0.0193136
-0.0191989
-0.0190996
-0.019009
-0.0189225
-0.0188346
-0.0187222
-0.0185736
-0.0186512
-0.0229231
-0.0223796
-0.0218057
-0.0215546
-0.0214286
-0.0213527
-0.02132
-0.0213116
-0.0213123
-0.0213396
-0.0213406
-0.021292
-0.0211987
-0.021055
-0.0208636
-0.0206352
-0.0203856
-0.0201318
-0.0198906
-0.0196757
-0.0195081
-0.0193803
-0.0192917
-0.0192404
-0.0192204
-0.019226
-0.0192527
-0.0192787
-0.0192404
-0.0192511
-0.02057
-0.0204596
-0.0202269
-0.0201394
-0.020106
-0.0201106
-0.0201589
-0.020236
-0.0203395
-0.0204917
-0.020628
-0.0207431
-0.0208362
-0.0208957
-0.0209165
-0.0208985
-0.0208463
-0.0207675
-0.0206715
-0.0205674
-0.020462
-0.0203632
-0.0202763
-0.0202034
-0.0201446
-0.0200995
-0.0200713
-0.0200509
-0.0199655
-0.0198582
-0.0190058
-0.019175
-0.0190625
-0.0190107
-0.0190122
-0.0190625
-0.0191632
-0.0193032
-0.0194905
-0.0197414
-0.0199937
-0.0202543
-0.0205155
-0.0207618
-0.0209812
-0.0211644
-0.0213053
-0.0214015
-0.0214541
-0.0214663
-0.0214424
-0.0213901
-0.0213174
-0.0212309
-0.021136
-0.021038
-0.0209454
-0.0208575
-0.0206961
-0.0204404
-0.0177078
-0.0179639
-0.0178999
-0.0178909
-0.0179469
-0.0180596
-0.0182274
-0.0184448
-0.018729
-0.0190824
-0.0194546
-0.0198552
-0.0202707
-0.0206825
-0.0210733
-0.0214272
-0.0217313
-0.021976
-0.0221566
-0.0222726
-0.0223273
-0.0223274
-0.0222815
-0.0221993
-0.0220899
-0.0219622
-0.0218291
-0.0216954
-0.0214714
-0.0210622
-0.0165055
-0.0167733
-0.0167498
-0.0167952
-0.0169135
-0.0170935
-0.0173343
-0.0176364
-0.0180251
-0.0184832
-0.0189783
-0.0195159
-0.0200783
-0.0206439
-0.0211911
-0.0216992
-0.0221496
-0.0225282
-0.022826
-0.0230397
-0.0231713
-0.0232269
-0.0232159
-0.0231494
-0.0230389
-0.0228959
-0.0227376
-0.0225722
-0.0222989
-0.0217469
-0.0153715
-0.0156252
-0.0156427
-0.0157437
-0.0159235
-0.0161711
-0.0164863
-0.0168771
-0.0173713
-0.0179343
-0.0185525
-0.0192239
-0.0199275
-0.0206393
-0.0213338
-0.021986
-0.0225732
-0.0230774
-0.0234864
-0.0237947
-0.0240026
-0.0241161
-0.024145
-0.0241014
-0.0239982
-0.0238492
-0.0236753
-0.0234869
-0.0231723
-0.0224941
-0.0142909
-0.0145191
-0.0145754
-0.0147317
-0.0149726
-0.015289
-0.0156818
-0.0161657
-0.0167629
-0.0174325
-0.018173
-0.0189752
-0.0198155
-0.0206673
-0.0215018
-0.0222905
-0.0230071
-0.0236304
-0.0241458
-0.0245457
-0.0248295
-0.0250026
-0.0250749
-0.0250596
-0.0249705
-0.0248234
-0.0246413
-0.0244378
-0.0240887
-0.0233003
-0.0132476
-0.0134444
-0.0135388
-0.0137518
-0.0140555
-0.0144425
-0.0149165
-0.0154977
-0.0161951
-0.0169742
-0.0178364
-0.0187668
-0.0197402
-0.0207272
-0.0216961
-0.0226152
-0.0234554
-0.0241928
-0.0248106
-0.0252998
-0.0256588
-0.0258926
-0.0260113
-0.0260286
-0.0259592
-0.0258203
-0.0256369
-0.0254242
-0.0250463
-0.0241626
-0.0122294
-0.0123937
-0.0125274
-0.0127982
-0.0131673
-0.013627
-0.0141852
-0.0148666
-0.0156639
-0.0165548
-0.0175384
-0.0185958
-0.0196996
-0.0208185
-0.0219178
-0.022963
-0.0239225
-0.0247704
-0.0254879
-0.0260648
-0.0264986
-0.0267941
-0.0269615
-0.0270149
-0.0269699
-0.0268444
-0.0266661
-0.0264499
-0.026047
-0.0250795
-0.0112277
-0.0113601
-0.0115336
-0.0118651
-0.0123027
-0.0128371
-0.0134833
-0.0142669
-0.0151653
-0.0161703
-0.0172755
-0.0184592
-0.0196923
-0.0209409
-0.022168
-0.0233366
-0.0244129
-0.0253689
-0.0261845
-0.0268482
-0.027357
-0.0277153
-0.0279336
-0.0280262
-0.0280092
-0.0279017
-0.0277337
-0.0275187
-0.0270936
-0.0260506
-0.0102353
-0.0103369
-0.010551
-0.0109455
-0.0114542
-0.0120682
-0.0128078
-0.0136922
-0.0146954
-0.0158167
-0.0170446
-0.018355
-0.019717
-0.0210945
-0.0224482
-0.0237389
-0.0249306
-0.0259938
-0.026907
-0.0276576
-0.0282421
-0.0286648
-0.0289361
-0.0290705
-0.029085
-0.0289994
-0.0288457
-0.0286362
-0.0281912
-0.0270776
-0.00924499
-0.00931647
-0.00957206
-0.0100332
-0.0106162
-0.0113138
-0.0121524
-0.0131373
-0.0142501
-0.0154904
-0.0168427
-0.0182811
-0.0197729
-0.0212797
-0.0227601
-0.0241728
-0.0254801
-0.0266507
-0.0276619
-0.0285005
-0.0291622
-0.0296511
-0.0299778
-0.030157
-0.030206
-0.0301458
-0.0300106
-0.0298107
-0.0293471
-0.0281644
-0.00824981
-0.00829086
-0.00858876
-0.00912035
-0.00978115
-0.0105675
-0.0115098
-0.0125977
-0.0138249
-0.0151874
-0.0166669
-0.0182357
-0.0198593
-0.021497
-0.0231055
-0.0246415
-0.0260656
-0.0273451
-0.0284561
-0.0293845
-0.0301257
-0.0306835
-0.0310684
-0.0312956
-0.0313825
-0.0313513
-0.0312386
-0.0310519
-0.0305702
-0.0293178
-0.00724299
-0.00724956
-0.00759031
-0.00819633
-0.00894202
-0.00982474
-0.0108716
-0.012068
-0.0134151
-0.0149042
-0.0165147
-0.0182174
-0.0199758
-0.0217473
-0.0234865
-0.0251484
-0.0266919
-0.028083
-0.0292967
-0.030318
-0.0311418
-0.0317718
-0.0322186
-0.0324973
-0.0326258
-0.0326275
-0.0325414
-0.0323715
-0.0318721
-0.0305472
-0.00621652
-0.00618097
-0.00656512
-0.00725119
-0.00808894
-0.00907661
-0.0102306
-0.0115431
-0.0130159
-0.0146367
-0.0163832
-0.0182246
-0.0201222
-0.0220317
-0.0239057
-0.0256975
-0.0273643
-0.028871
-0.0301914
-0.0313098
-0.0322206
-0.0329271
-0.03344
-0.0337744
-0.0339488
-0.0339877
-0.0339327
-0.0337835
-0.0332666
-0.0318653
-0.00516
-0.00507102
-0.0054997
-0.00627268
-0.00721198
-0.00831264
-0.00957915
-0.0110161
-0.0126216
-0.0143808
-0.0162698
-0.0182558
-0.0202986
-0.0223517
-0.0243659
-0.0262929
-0.0280886
-0.0297162
-0.0311488
-0.0323698
-0.0333731
-0.0341617
-0.034746
-0.0351415
-0.0353667
-0.0354479
-0.0354293
-0.0353048
-0.0347707
-0.0332885
-0.00405652
-0.00390497
-0.00437765
-0.00524828
-0.00630174
-0.00751971
-0.00890863
-0.0104793
-0.0122261
-0.0141319
-0.0161712
-0.0183097
-0.0205051
-0.022709
-0.0248707
-0.02694
-0.0288714
-0.0306271
-0.0321789
-0.0335095
-0.0346122
-0.0354896
-0.0361521
-0.0366152
-0.0368974
-0.0370269
-0.0370507
-0.036956
-0.0364054
-0.0348377
-0.00288703
-0.00266517
-0.00318183
-0.00416155
-0.00534233
-0.00668466
-0.00820834
-0.00992366
-0.0118219
-0.0138845
-0.0160842
-0.0183848
-0.0207421
-0.0231061
-0.0254242
-0.0276447
-0.0297208
-0.0316133
-0.0332931
-0.0347421
-0.0359527
-0.0369275
-0.0376765
-0.0382152
-0.0385622
-0.0387475
-0.0388208
-0.0387619
-0.0381957
-0.0365388
-0.00162878
-0.00132376
-0.001889
-0.00299473
-0.00431268
-0.0057925
-0.00746468
-0.00933784
-0.0114005
-0.0136324
-0.0160048
-0.0184796
-0.0210106
-0.0235461
-0.0260318
-0.0284146
-0.0306463
-0.0326866
-0.0345053
-0.0360834
-0.0374127
-0.0384953
-0.0393409
-0.0399649
-0.0403861
-0.0406364
-0.040768
-0.0407525
-0.0401737
-0.038425
-0.000247202
0.000147162
-0.000472778
-0.00171852
-0.00318724
-0.00482356
-0.00666133
-0.00870823
-0.0109512
-0.0133683
-0.0159287
-0.0185924
-0.0213117
-0.0240329
-0.0267002
-0.0292591
-0.03166
-0.0338615
-0.0358325
-0.0375529
-0.039014
-0.0402172
-0.0411721
-0.0418936
-0.0424008
-0.0427278
-0.0429302
-0.0429667
-0.0423791
-0.0405383
0.00130163
0.00178929
0.00110259
-0.000297505
-0.0019376
-0.00375248
-0.00577655
-0.00801752
-0.010461
-0.0130829
-0.0158505
-0.018722
-0.0216476
-0.0245722
-0.0274384
-0.0301903
-0.0327771
-0.0351565
-0.0372961
-0.0391752
-0.0407842
-0.042124
-0.0432037
-0.0440378
-0.0446457
-0.0450635
-0.0453499
-0.0454515
-0.0448624
-0.0429325
0.0030779
0.00365912
0.00289316
0.00131651
-0.000524411
-0.00254515
-0.00478222
-0.00724343
-0.00991302
-0.0127648
-0.0157641
-0.0188669
-0.0220218
-0.0251719
-0.0282585
-0.0312245
-0.034018
-0.0365956
-0.0389242
-0.0409821
-0.042759
-0.0442551
-0.045479
-0.0464448
-0.0471724
-0.0476988
-0.0480868
-0.0482705
-0.0476911
-0.0456789
0.00516932
0.00583994
0.00497459
0.00318481
0.00110538
-0.00115692
-0.00364137
-0.00635675
-0.00928579
-0.0123999
-0.0156621
-0.0190265
-0.0224398
-0.0258435
-0.0291777
-0.0323842
-0.0354104
-0.0382117
-0.0407545
-0.0430162
-0.0449859
-0.046663
-0.0480553
-0.0491767
-0.050047
-0.0507056
-0.051218
-0.0515047
-0.0509532
-0.0488727
0.00770646
0.00844598
0.00744488
0.00539325
0.00302651
0.000474575
-0.00230324
-0.005318
-0.00855069
-0.01197
-0.0155363
-0.0192018
-0.0229112
-0.0266048
-0.0302213
-0.033702
-0.0369935
-0.0400509
-0.0428397
-0.0453368
-0.0475306
-0.0494197
-0.0510115
-0.0523188
-0.0533619
-0.0541832
-0.0548487
-0.0552655
-0.0547676
-0.0526444
0.0108828
0.0116505
0.0104511
0.00806957
0.00534632
0.00243978
-0.00069519
-0.00407179
-0.00766875
-0.0114516
-0.0153779
-0.0193974
-0.0234532
-0.0274841
-0.0314285
-0.0352269
-0.038826
-0.0421807
-0.0452564
-0.0480295
-0.0504876
-0.0526289
-0.0544597
-0.0559922
-0.0572467
-0.0582685
-0.0591268
-0.0597109
-0.0593065
-0.0571828
0.0150159
0.0157127
0.0142145
0.0114041
0.00823024
0.0048751
0.0012902
-0.00253864
-0.00658693
-0.0108162
-0.0151807
-0.0196275
-0.024098
-0.0285303
-0.0328626
-0.0370362
-0.0409985
-0.0447052
-0.0481219
-0.0512251
-0.0540018
-0.0564494
-0.0585729
-0.0603835
-0.0619009
-0.0631725
-0.0642698
-0.0650702
-0.0648169
-0.0627645
0.0206841
0.0210877
0.0190938
0.0156975
0.011927
0.0079789
0.00380355
-0.000611878
-0.00523859
-0.0100333
-0.0149463
-0.019922
-0.0249002
-0.0298194
-0.0346189
-0.0392422
-0.0436392
-0.0477679
-0.0515957
-0.0550997
-0.0582675
-0.0610953
-0.0635873
-0.065753
-0.0676115
-0.0692103
-0.0706203
-0.0717158
-0.0717296
-0.0699005
0.0288569
0.0285597
0.0257708
0.021588
0.0170177
0.0122485
0.0072399
0.00199319
-0.00345021
-0.00903667
-0.0147086
-0.0204056
-0.0260661
-0.0316298
-0.0370396
-0.0422437
-0.0471972
-0.0518636
-0.056213
-0.0602252
-0.0638908
-0.0672003
-0.0701542
-0.0727591
-0.0750302
-0.0770091
-0.0787607
-0.0801774
-0.0805725
-0.0792267
0.0434316
0.0413355
0.0367757
0.031157
0.0252194
0.0190628
0.012675
0.00609207
-0.000623607
-0.00740626
-0.0141929
-0.0209235
-0.0275429
-0.0340012
-0.0402553
-0.0462686
-0.0520104
-0.0574541
-0.0625799
-0.0673704
-0.0718086
-0.0758917
-0.0796153
-0.0829765
-0.0859782
-0.0886427
-0.0910204
-0.0930855
-0.0943916
-0.0940882
-0.0231465
-0.0219949
-0.0201851
-0.0186706
-0.0173332
-0.0160545
-0.0148099
-0.0135935
-0.0123967
-0.0112099
-0.0100235
-0.00882703
-0.00760925
-0.00635769
-0.00505859
-0.00369606
-0.00225154
-0.000702859
0.000975449
0.00281402
0.00485323
0.00714273
0.00974697
0.0127523
0.0162786
0.0204984
0.0256397
0.0320414
0.0398793
0.0504322
-0.0186917
-0.017521
-0.0162296
-0.0151036
-0.0140555
-0.0130288
-0.012013
-0.0110036
-0.00999287
-0.00897262
-0.00793461
-0.00687035
-0.0057707
-0.00462564
-0.00342364
-0.00215107
-0.000791425
0.000675578
0.00227477
0.00403778
0.00600611
0.00823361
0.0107926
0.0137822
0.0173431
0.0216792
0.0270815
0.0340077
0.0429433
0.0551812
-0.0159806
-0.0149231
-0.0138848
-0.0129282
-0.0119821
-0.0110275
-0.0100659
-0.00909522
-0.00810982
-0.00710312
-0.00606808
-0.00499701
-0.00388131
-0.0027112
-0.00147531
-0.000159996
0.00125133
0.00277921
0.00444929
0.00629457
0.00835824
0.0106974
0.0133896
0.0165423
0.0203083
0.0249094
0.0306709
0.0381044
0.0478678
0.0613255
-0.0135663
-0.0126198
-0.0116965
-0.0108227
-0.00994457
-0.00904898
-0.00813535
-0.00719994
-0.00623666
-0.00523896
-0.00419986
-0.00311165
-0.00196565
-0.000751834
0.000541619
0.00192893
0.00342752
0.00505901
0.00685061
0.00883731
0.0110648
0.0135934
0.0165053
0.0199134
0.0239779
0.0289291
0.0351049
0.0430242
0.0534293
0.067692
-0.0113086
-0.0104607
-0.00963192
-0.00883386
-0.00801977
-0.00717672
-0.00630272
-0.00539385
-0.00444457
-0.00344878
-0.00239979
-0.00129005
-0.000110804
0.00114821
0.00249925
0.00395721
0.0055404
0.00727163
0.00917972
0.0113016
0.0136853
0.0163945
0.0195149
0.0231643
0.0275079
0.0327824
0.039333
0.0476815
0.0586482
0.0736334
-0.00924085
-0.00848304
-0.00773693
-0.00700377
-0.00624134
-0.00543815
-0.00459232
-0.00370033
-0.00275712
-0.00175697
-0.000693424
0.000440961
0.00165495
0.00295896
0.00436557
0.00589015
0.00755171
0.00937398
0.011387
0.0136291
0.0161503
0.0190166
0.0223167
0.0261717
0.0307514
0.0362975
0.0431622
0.0518748
0.0633334
0.0790064
-0.00737276
-0.00669675
-0.00602228
-0.00534307
-0.00462177
-0.00384898
-0.00302321
-0.0021413
-0.00119862
-0.000189785
0.000891396
0.00205223
0.00330145
0.00464958
0.00610942
0.00769672
0.009431
0.0113367
0.0134447
0.0157946
0.0184376
0.0214416
0.0248971
0.0289283
0.0337079
0.0394819
0.0466091
0.0556278
0.0675016
0.0837842
-0.0057132
-0.00511131
-0.00449884
-0.00386424
-0.00317569
-0.00242601
-0.0016142
-0.000737466
0.000208383
0.00122835
0.00232838
0.00351562
0.00479876
0.0061884
0.00769751
0.00934215
0.0111423
0.0131228
0.0153153
0.0177603
0.0205099
0.0236333
0.0272227
0.031404
0.0363526
0.0423176
0.0496636
0.0589372
0.0711537
0.0879387
-0.00427258
-0.00373717
-0.00317762
-0.00257927
-0.00191637
-0.00118396
-0.000381478
0.000493459
0.00144459
0.00247657
0.00359508
0.00480715
0.00612139
0.00754846
0.00910148
0.0107967
0.0126544
0.0147
0.0169655
0.019492
0.0223325
0.025557
0.0292589
0.0335656
0.0386542
0.0447764
0.0523014
0.0617832
0.0742811
0.0914527
-0.00305836
-0.00258123
-0.00206566
-0.00149602
-0.000852782
-0.000132999
0.000663506
0.00153873
0.00249601
0.00353965
0.00467511
0.00590929
0.00725077
0.00871021
0.0103009
0.0120391
0.0139455
0.0160457
0.0183722
0.0209664
0.023882
0.0271896
0.0309834
0.0353918
0.0405935
0.0468416
0.0545095
0.0641561
0.0768732
0.0943451
-0.00207287
-0.00164498
-0.00116464
-0.000617017
1.15536e-05
0.000722321
0.00151518
0.00239179
0.0033551
0.00440915
0.00555922
0.00681207
0.00817626
0.00966245
0.011284
0.0130573
0.0150032
0.0171476
0.019523
0.0221714
0.0251469
0.0285204
0.0323869
0.0368753
0.0421654
0.0485113
0.0562895
0.0660609
0.078941
0.096653
-0.0013124
-0.000924011
-0.000470518
6.09363e-05
0.000678961
0.00138351
0.00217426
0.00305261
0.00402121
0.00508385
0.00624567
0.00751335
0.0088954
0.0104025
0.012048
0.0138486
0.0158249
0.0180031
0.0204161
0.023106
0.026127
0.0295506
0.0334719
0.0380206
0.0433769
0.0497955
0.0576558
0.0675164
0.0805162
0.0984081
-0.0007674
-0.000408315
2.61418e-05
0.000546483
0.00115737
0.00185785
0.00264749
0.00352746
0.00450018
0.00556928
0.00673979
0.00801834
0.0094134
0.0109357
0.0125985
0.0144186
0.0164168
0.0186193
0.0210591
0.0237784
0.0268319
0.0302909
0.0342511
0.0388423
0.0442452
0.0507146
0.0586326
0.0685519
0.0816394
0.0996502
-0.00042317
-8.31463e-05
0.000339368
0.000852915
0.0014595
0.00215761
0.00294674
0.00382792
0.00480342
0.00587678
0.00705295
0.00833851
0.00974192
0.0112739
0.0129478
0.0147804
0.0167925
0.0190104
0.0214672
0.0242052
0.0272792
0.0307607
0.0347454
0.0393635
0.0447956
0.0512968
0.0592514
0.0692038
0.0823441
0.100438
-0.000261215
6.95733e-05
0.000486437
0.000996852
0.00160148
0.00229856
0.00308754
0.00396937
0.00494626
0.0060217
0.00720061
0.00848955
0.00989698
0.0114336
0.0131128
0.0149513
0.0169701
0.0191953
0.0216603
0.0244073
0.0274911
0.0309834
0.0349799
0.0396107
0.0450569
0.0515731
0.0595454
0.0695115
0.0826707
0.100822
-0.000260598
7.01892e-05
0.000487046
0.000997452
0.00160207
0.00229914
0.00308811
0.00396994
0.00494681
0.00602223
0.00720112
0.00849004
0.00989745
0.011434
0.0131132
0.0149517
0.0169705
0.0191957
0.0216606
0.0244076
0.0274914
0.0309837
0.0349802
0.0396111
0.0450573
0.0515734
0.0595457
0.0695117
0.082671
0.100823
-0.000421325
-8.13023e-05
0.000341191
0.000854709
0.00146126
0.00215934
0.00294845
0.00382959
0.00480505
0.00587836
0.00705447
0.00833997
0.00974333
0.0112752
0.0129491
0.0147815
0.0167936
0.0190114
0.0214682
0.0242062
0.0272802
0.0307617
0.0347465
0.0393646
0.0447968
0.0512979
0.0592521
0.0692044
0.0823451
0.10044
-0.000764335
-0.000405253
2.9166e-05
0.000549458
0.00116029
0.00186072
0.00265031
0.00353021
0.00450286
0.00557188
0.0067423
0.00802075
0.00941571
0.0109379
0.0126006
0.0144206
0.0164187
0.0186211
0.0210608
0.0237801
0.0268335
0.0302926
0.0342529
0.0388441
0.044247
0.0507164
0.0586339
0.068553
0.0816412
0.0996523
-0.00130815
-0.000919762
-0.000466323
6.50581e-05
0.000683008
0.00138748
0.00217815
0.00305641
0.0040249
0.00508743
0.00624912
0.00751666
0.00889857
0.0104055
0.0120509
0.0138513
0.0158276
0.0180057
0.0204186
0.0231084
0.0261294
0.029553
0.0334743
0.0380231
0.0433794
0.049798
0.057658
0.0675184
0.0805187
0.0984109
-0.00206746
-0.00163959
-0.00115931
-0.000611791
1.66792e-05
0.000727343
0.00152009
0.00239658
0.00335976
0.00441366
0.00556356
0.00681624
0.00818025
0.00966628
0.0112876
0.0130609
0.0150066
0.0171508
0.0195262
0.0221745
0.02515
0.0285235
0.0323899
0.0368783
0.0421685
0.0485146
0.0562928
0.0660639
0.0789445
0.0966563
-0.00305185
-0.00257473
-0.00205925
-0.00148974
-0.000846628
-0.000126977
0.000669391
0.00154447
0.00250159
0.00354504
0.0046803
0.00591427
0.00725554
0.00871479
0.0103053
0.0120434
0.0139497
0.0160497
0.0183761
0.0209702
0.0238858
0.0271932
0.0309869
0.0353953
0.0405972
0.0468459
0.0545141
0.0641604
0.0768778
0.0943487
-0.00426498
-0.00372959
-0.00317017
-0.00257199
-0.00190925
-0.001177
-0.000374678
0.000500085
0.00145103
0.0024828
0.00360108
0.0048129
0.00612691
0.00755376
0.0091066
0.0108017
0.0126593
0.0147048
0.0169702
0.0194965
0.022337
0.0255613
0.029263
0.0335696
0.0386585
0.0447817
0.0523075
0.061789
0.0742867
0.0914565
-0.00570451
-0.00510267
-0.00449039
-0.003856
-0.00316765
-0.00241816
-0.00160654
-0.00073001
0.000215627
0.00123536
0.00233514
0.00352212
0.00480501
0.00619441
0.00770332
0.00934781
0.0111478
0.0131282
0.0153207
0.0177655
0.020515
0.0236381
0.0272272
0.0314085
0.0363577
0.0423241
0.0496711
0.0589444
0.0711599
0.0879431
-0.00736309
-0.00668717
-0.00601292
-0.00533395
-0.00461288
-0.00384031
-0.00301476
-0.00213307
-0.00119062
-0.000182029
0.000898897
0.00205947
0.00330841
0.00465628
0.0061159
0.00770303
0.0094372
0.0113428
0.0134507
0.0158005
0.0184433
0.0214469
0.0249022
0.0289334
0.0337138
0.0394896
0.0466182
0.0556363
0.067508
0.0837889
-0.00923038
-0.00847266
-0.00772678
-0.00699387
-0.00623168
-0.00542872
-0.00458312
-0.00369138
-0.00274841
-0.00174851
-0.000685224
0.00044889
0.00166259
0.00296632
0.00437269
0.00589709
0.00755852
0.00938071
0.0113936
0.0136356
0.0161566
0.0190225
0.0223223
0.0261776
0.0307583
0.0363065
0.0431726
0.0518843
0.0633402
0.0790109
-0.0112974
-0.0104497
-0.00962109
-0.00882327
-0.00800942
-0.00716661
-0.00629284
-0.00538422
-0.0044352
-0.00343966
-0.00239093
-0.00128145
-0.000102499
0.00115622
0.002507
0.00396474
0.00554779
0.00727893
0.00918691
0.0113086
0.0136921
0.016401
0.0195212
0.0231709
0.0275158
0.0327925
0.0393444
0.0476917
0.058655
0.0736375
-0.0135546
-0.0126082
-0.0116851
-0.0108115
-0.00993361
-0.00903824
-0.00812486
-0.00718969
-0.00622667
-0.00522922
-0.00419037
-0.00310243
-0.00195671
-0.000743194
0.000549972
0.00193705
0.00343547
0.00506684
0.00685832
0.00884486
0.0110721
0.0136006
0.0165124
0.0199211
0.0239869
0.0289402
0.0351169
0.0430345
0.053436
0.0676957
-0.0159685
-0.014911
-0.0138729
-0.0129165
-0.0119706
-0.0110163
-0.0100549
-0.00908441
-0.00809925
-0.00709279
-0.006058
-0.00498718
-0.00387175
-0.00270194
-0.00146633
-0.000151274
0.00125986
0.00278759
0.00445753
0.00630263
0.00836612
0.0107052
0.0133975
0.016551
0.0203182
0.0249209
0.0306827
0.0381137
0.0478738
0.0613291
-0.0186794
-0.0175085
-0.0162173
-0.0150915
-0.0140435
-0.0130171
-0.0120016
-0.0109923
-0.00998183
-0.00896181
-0.00792402
-0.00686
-0.00576061
-0.00461582
-0.0034141
-0.0021418
-0.000782384
0.000684406
0.00228339
0.00404621
0.0060144
0.0082419
0.0108011
0.0137919
0.0173537
0.0216904
0.0270921
0.0340153
0.0429483
0.0551852
-0.0231331
-0.0219813
-0.0201719
-0.0186578
-0.0173207
-0.0160424
-0.0147981
-0.013582
-0.0123855
-0.0111989
-0.0100127
-0.00881656
-0.00759906
-0.00634776
-0.00504893
-0.00368671
-0.00224252
-0.000694172
0.000983848
0.00282221
0.00486135
0.00715097
0.00975553
0.0127623
0.0162892
0.0205084
0.0256479
0.0320466
0.0398832
0.0504368
0.0434373
0.0413419
0.0367814
0.0311623
0.0252247
0.0190684
0.0126806
0.00609721
-0.00061916
-0.00740275
-0.0141905
-0.0209224
-0.0275429
-0.0340025
-0.0402577
-0.0462721
-0.052015
-0.0574594
-0.062586
-0.0673771
-0.0718159
-0.0758993
-0.0796232
-0.0829845
-0.0859864
-0.088651
-0.091029
-0.0930945
-0.0944013
-0.0940987
0.0288608
0.028563
0.0257744
0.0215924
0.0170225
0.0122534
0.00724435
0.00199693
-0.00344735
-0.00903478
-0.0147077
-0.0204057
-0.0260672
-0.0316319
-0.0370427
-0.0422478
-0.0472021
-0.0518695
-0.0562197
-0.0602325
-0.0638986
-0.0672086
-0.0701628
-0.0727679
-0.0750391
-0.077018
-0.0787697
-0.0801864
-0.0805812
-0.0792355
0.0206887
0.0210928
0.0190994
0.0157035
0.0119326
0.00798381
0.00380751
-0.000608969
-0.00523673
-0.0100325
-0.0149464
-0.0199229
-0.024902
-0.029822
-0.0346223
-0.0392465
-0.0436444
-0.047774
-0.0516027
-0.0551076
-0.0582762
-0.0611047
-0.0635972
-0.0657633
-0.067622
-0.0692206
-0.0706304
-0.0717255
-0.0717387
-0.0699088
0.015023
0.0157198
0.0142211
0.01141
0.00823488
0.00487855
0.00129243
-0.00253749
-0.00658671
-0.0108168
-0.0151819
-0.0196294
-0.0241004
-0.0285334
-0.0328663
-0.0370407
-0.0410039
-0.0447115
-0.0481292
-0.0512334
-0.0540113
-0.0564598
-0.0585842
-0.0603954
-0.0619132
-0.0631848
-0.0642816
-0.0650813
-0.0648267
-0.0627727
0.0108913
0.0116583
0.0104576
0.00807426
0.00534925
0.00244136
-0.000694822
-0.00407243
-0.00767015
-0.0114535
-0.0153802
-0.0194001
-0.0234562
-0.0274876
-0.0314325
-0.0352315
-0.0388314
-0.0421871
-0.0452639
-0.0480381
-0.0504974
-0.0526398
-0.0544716
-0.056005
-0.05726
-0.058282
-0.0591401
-0.0597235
-0.0593176
-0.0571921
0.00771575
0.00845359
0.00745031
0.00539642
0.00302805
0.000474617
-0.0023044
-0.00532007
-0.00855339
-0.0119731
-0.0155397
-0.0192053
-0.0229148
-0.0266087
-0.0302256
-0.0337069
-0.0369991
-0.0400573
-0.0428471
-0.0453454
-0.0475402
-0.0494305
-0.0510233
-0.0523315
-0.0533752
-0.0541969
-0.0548624
-0.0552789
-0.05478
-0.0526554
0.00517817
0.00584674
0.0049791
0.00318771
0.00110623
-0.00115762
-0.00364322
-0.00635951
-0.00928918
-0.0124037
-0.0156661
-0.0190305
-0.0224438
-0.0258478
-0.0291822
-0.0323892
-0.0354159
-0.0382181
-0.0407618
-0.0430245
-0.0449951
-0.0466732
-0.0480665
-0.0491887
-0.0500597
-0.0507189
-0.0512315
-0.0515183
-0.0509664
-0.0488852
0.00308534
0.00366524
0.0028976
0.00131901
-0.000523701
-0.00254584
-0.0047841
-0.00724628
-0.00991655
-0.0127688
-0.0157682
-0.0188711
-0.0220261
-0.0251763
-0.0282631
-0.0312294
-0.0340235
-0.0366017
-0.0389311
-0.0409898
-0.0427676
-0.0442646
-0.0454893
-0.0464559
-0.0471841
-0.0477112
-0.0480997
-0.0482837
-0.0477045
-0.0456923
0.00130894
0.00179565
0.00110757
-0.000294525
-0.00193653
-0.00375284
-0.00577811
-0.0080201
-0.0104643
-0.0130867
-0.0158546
-0.0187262
-0.0216519
-0.0245765
-0.0274428
-0.030195
-0.0327823
-0.0351622
-0.0373024
-0.0391822
-0.040792
-0.0421326
-0.043213
-0.0440479
-0.0446566
-0.0450751
-0.0453621
-0.0454641
-0.0448757
-0.0429463
-0.000240004
0.000153544
-0.000467834
-0.00171498
-0.00318556
-0.00482342
-0.00666245
-0.00871042
-0.0109542
-0.0133719
-0.0159326
-0.0185965
-0.0213158
-0.024037
-0.0267044
-0.0292634
-0.0316647
-0.0338667
-0.0358382
-0.0375592
-0.039021
-0.0402249
-0.0411805
-0.0419028
-0.0424108
-0.0427385
-0.0429415
-0.042979
-0.0423921
-0.0405519
-0.00162142
-0.00131708
-0.0018837
-0.00299091
-0.00431034
-0.00579182
-0.00746537
-0.00933964
-0.0114032
-0.0136357
-0.0160084
-0.0184833
-0.0210143
-0.0235498
-0.0260356
-0.0284185
-0.0306505
-0.0326912
-0.0345103
-0.0360889
-0.0374189
-0.0385021
-0.0393485
-0.0399733
-0.0403954
-0.0406466
-0.0407791
-0.0407644
-0.0401863
-0.0384383
-0.00287939
-0.00265808
-0.00317604
-0.00415738
-0.0053395
-0.00668346
-0.0082085
-0.00992505
-0.0118242
-0.0138874
-0.0160874
-0.0183882
-0.0207455
-0.0231095
-0.0254275
-0.0276482
-0.0297245
-0.0316173
-0.0332975
-0.0347469
-0.0359582
-0.0369336
-0.0376834
-0.0382229
-0.0385708
-0.0387569
-0.0388313
-0.0387733
-0.038208
-0.0365517
-0.00404853
-0.00389749
-0.00437144
-0.00524362
-0.00629861
-0.00751789
-0.00890837
-0.0104803
-0.0122279
-0.0141343
-0.016174
-0.0183126
-0.0205079
-0.0227119
-0.0248736
-0.026943
-0.0288746
-0.0306306
-0.0321828
-0.0335138
-0.034617
-0.0354951
-0.0361585
-0.0366224
-0.0369056
-0.0370361
-0.037061
-0.0369672
-0.0364174
-0.0348502
-0.00515162
-0.0050632
-0.00549316
-0.00626771
-0.00720855
-0.00831057
-0.00957843
-0.0110166
-0.0126229
-0.0143827
-0.0162719
-0.0182581
-0.0203009
-0.022354
-0.0243683
-0.0262955
-0.0280914
-0.0297193
-0.0311522
-0.0323737
-0.0333775
-0.0341667
-0.0347519
-0.0351484
-0.0353746
-0.0354569
-0.0354392
-0.0353156
-0.0347822
-0.0333006
-0.00620775
-0.00617278
-0.00655819
-0.00724577
-0.00808507
-0.00907421
-0.0102293
-0.0115429
-0.0130165
-0.0146379
-0.0163847
-0.0182262
-0.020124
-0.0220335
-0.0239077
-0.0256996
-0.0273668
-0.0288737
-0.0301945
-0.0313133
-0.0322247
-0.0329319
-0.0334456
-0.033781
-0.0339565
-0.0339964
-0.0339425
-0.0337941
-0.0332778
-0.031877
-0.00723388
-0.00724099
-0.00758292
-0.00819037
-0.00893752
-0.00982162
-0.0108697
-0.0120671
-0.013415
-0.0149046
-0.0165154
-0.0182184
-0.0199769
-0.0217487
-0.0234881
-0.0251503
-0.0266941
-0.0280855
-0.0292995
-0.0303213
-0.0311458
-0.0317765
-0.0322241
-0.0325037
-0.0326333
-0.032636
-0.0325509
-0.0323819
-0.031883
-0.0305585
-0.00824039
-0.00828188
-0.00858088
-0.0091138
-0.00977597
-0.0105636
-0.0115071
-0.0125958
-0.0138239
-0.015187
-0.0166669
-0.0182361
-0.0198599
-0.0214979
-0.0231067
-0.024643
-0.0260675
-0.0273474
-0.0284588
-0.0293878
-0.0301296
-0.0306881
-0.0310739
-0.0313021
-0.03139
-0.0313598
-0.031248
-0.0310621
-0.030581
-0.0293287
-0.00923525
-0.00930707
-0.00956367
-0.0100261
-0.0106103
-0.011309
-0.0121487
-0.0131346
-0.0142482
-0.0154891
-0.0168419
-0.0182807
-0.0197729
-0.0212801
-0.0227609
-0.024174
-0.0254818
-0.0266529
-0.0276646
-0.0285037
-0.0291661
-0.0296558
-0.0299833
-0.0301635
-0.0302135
-0.0301542
-0.03002
-0.0298208
-0.0293577
-0.0281751
-0.0102252
-0.0103271
-0.010542
-0.0109377
-0.0114476
-0.0120626
-0.0128032
-0.0136885
-0.0146926
-0.0158146
-0.0170431
-0.018354
-0.0197165
-0.0210945
-0.0224487
-0.0237399
-0.0249322
-0.0259959
-0.0269097
-0.0276609
-0.0282461
-0.0286696
-0.0289418
-0.0290771
-0.0290925
-0.0290078
-0.028855
-0.0286462
-0.0282017
-0.0270881
-0.0112173
-0.0113499
-0.0115242
-0.0118567
-0.0122953
-0.0128307
-0.0134778
-0.0142624
-0.0151616
-0.0161673
-0.0172732
-0.0184576
-0.0196912
-0.0209404
-0.0221681
-0.0233374
-0.0244143
-0.025371
-0.0261872
-0.0268516
-0.0273612
-0.0277203
-0.0279395
-0.0280329
-0.0280168
-0.0279102
-0.0277429
-0.0275286
-0.027104
-0.026061
-0.0122186
-0.0123831
-0.0125175
-0.0127892
-0.013159
-0.0136197
-0.0141788
-0.0148612
-0.0156593
-0.016551
-0.0175353
-0.0185934
-0.019698
-0.0208175
-0.0219176
-0.0229635
-0.0239239
-0.0247725
-0.0254908
-0.0260684
-0.026503
-0.0267993
-0.0269676
-0.0270219
-0.0269776
-0.0268529
-0.0266753
-0.0264598
-0.0260573
-0.0250898
-0.0132365
-0.0134335
-0.0135285
-0.0137422
-0.0140466
-0.0144344
-0.0149094
-0.0154914
-0.0161897
-0.0169696
-0.0178326
-0.0187638
-0.019738
-0.0207259
-0.0216957
-0.0226156
-0.0234566
-0.0241949
-0.0248136
-0.0253037
-0.0256634
-0.025898
-0.0260176
-0.0260357
-0.025967
-0.025829
-0.0256461
-0.025434
-0.0250565
-0.0241729
-0.0142795
-0.0145079
-0.0145647
-0.0147217
-0.0149632
-0.0152802
-0.015674
-0.0161587
-0.0167566
-0.0174272
-0.0181685
-0.0189716
-0.0198128
-0.0206655
-0.0215011
-0.0222907
-0.0230083
-0.0236326
-0.0241489
-0.0245497
-0.0248344
-0.0250083
-0.0250814
-0.0250669
-0.0249785
-0.0248321
-0.0246506
-0.0244476
-0.0240987
-0.0233104
-0.0153598
-0.0156137
-0.0156316
-0.0157329
-0.0159134
-0.0161617
-0.0164778
-0.0168692
-0.0173643
-0.0179282
-0.0185473
-0.0192196
-0.0199243
-0.0206371
-0.0213328
-0.0219861
-0.0225744
-0.0230797
-0.0234897
-0.0237989
-0.0240078
-0.0241221
-0.0241517
-0.0241088
-0.0240064
-0.0238579
-0.0236843
-0.0234963
-0.0231822
-0.0225041
-0.0164936
-0.0167615
-0.0167382
-0.0167839
-0.0169028
-0.0170836
-0.017325
-0.0176278