/*--------------------------------*- C++ -*----------------------------------*\
  =========                 |
  \\      /  F ield         | OpenFOAM: The Open Source CFD Toolbox
   \\    /   O peration     | Website:  https://openfoam.org
    \\  /    A nd           | Version:  12
     \\/     M anipulation  |
\*---------------------------------------------------------------------------*/
FoamFile
{
    format      ascii;
    class       volScalarField;
    location    "80";
    object      pPrime2Mean;
}
// * * * * * * * * * * * * * * * * * * * * * * * * * * * * * * * * * * * * * //

dimensions      [0 4 -4 0 0 0 0];

internalField   nonuniform List<scalar> 
6750
(
0.0151482
0.0151232
0.0150898
0.0150602
0.0150417
0.0151874
0.0151557
0.0151056
0.0150459
0.0149846
0.0152926
0.0152532
0.0151876
0.0151029
0.0150122
0.0154621
0.0154199
0.0153491
0.0152561
0.0151566
0.015688
0.0156496
0.0155847
0.0154984
0.0154061
0.015956
0.0159269
0.0158772
0.0158095
0.0157368
0.0162478
0.0162323
0.0162047
0.0161643
0.0161204
0.0165442
0.0165451
0.016544
0.0165366
0.0165279
0.0168273
0.0168458
0.0168731
0.0169014
0.0169312
0.017082
0.0171177
0.0171732
0.0172368
0.0173053
0.017297
0.0173485
0.0174295
0.0175257
0.0176301
0.0174651
0.0175298
0.0176323
0.0177559
0.0178909
0.017583
0.0176576
0.0177764
0.017921
0.0180795
0.0176506
0.0177318
0.0178611
0.0180192
0.0181933
0.0176709
0.017755
0.017889
0.0180533
0.0182345
0.0176484
0.017732
0.0178653
0.0180289
0.0182093
0.0175829
0.0176628
0.0177901
0.017946
0.0181175
0.0174705
0.017543
0.0176585
0.0177993
0.0179537
0.0173089
0.0173706
0.0174688
0.0175872
0.0177165
0.0170988
0.0171468
0.0172224
0.0173123
0.0174097
0.0168442
0.016876
0.0169254
0.016982
0.0170426
0.0165529
0.0165672
0.0165881
0.0166089
0.0166304
0.0162367
0.0162334
0.0162257
0.0162107
0.0161936
0.0159111
0.0158914
0.0158574
0.0158096
0.0157575
0.0155942
0.0155611
0.0155053
0.0154306
0.01535
0.0153056
0.0152634
0.0151927
0.0150998
0.0150002
0.0150636
0.0150179
0.0149417
0.0148424
0.0147362
0.0148826
0.0148398
0.0147691
0.0146786
0.0145818
0.0147704
0.0147357
0.0146809
0.0146157
0.0145488
0.0147284
0.014701
0.0146637
0.0146298
0.0146075
0.0150107
0.0148758
0.0146178
0.0142654
0.0138244
0.0132983
0.0126892
0.0119995
0.0112357
0.0104072
0.0095273
0.00861527
0.00769206
0.00678075
0.00590409
0.00508226
0.00433117
0.00366125
0.00307697
0.00257743
0.00215838
0.00181218
0.0015297
0.00130178
0.0011198
0.000975867
0.000863569
0.000777513
0.000713627
0.000675322
0.0149959
0.0147768
0.0144618
0.0140641
0.0135857
0.0130288
0.0123977
0.0116985
0.0109393
0.0101297
0.00928276
0.00841569
0.00754573
0.00669156
0.00587104
0.00509987
0.0043905
0.0037513
0.00318661
0.00269704
0.0022791
0.00192763
0.00163603
0.00139688
0.00120291
0.00104767
0.000925245
0.000830006
0.000756556
0.000703176
0.0149328
0.0146589
0.0143003
0.0138682
0.0133625
0.0127862
0.0121438
0.0114422
0.0106908
0.00989876
0.00908034
0.00825059
0.00742437
0.00661702
0.00584275
0.00511375
0.00443969
0.00382733
0.00328041
0.0027998
0.00238401
0.0020295
0.00173122
0.0014834
0.00127997
0.001115
0.000982967
0.000878204
0.000795576
0.000732352
0.0148471
0.0145378
0.0141462
0.0136886
0.0131665
0.012581
0.0119364
0.0112393
0.0104991
0.00972489
0.00893101
0.00813064
0.00733714
0.00656379
0.00582262
0.00512389
0.00447568
0.00388379
0.00335154
0.00287999
0.00246826
0.00211371
0.00181238
0.00155947
0.00134966
0.00117742
0.00103709
0.000923311
0.000831188
0.000762469
0.0147544
0.0144188
0.0140014
0.0135243
0.0129919
0.0124033
0.0117619
0.0110739
0.0103472
0.00959113
0.00881895
0.00804247
0.00727404
0.00652571
0.00580841
0.00513149
0.00450236
0.00392631
0.00340644
0.00294379
0.00253756
0.00218542
0.00188389
0.00162862
0.00141471
0.00123685
0.00108949
0.000967061
0.000867009
0.000793901
0.014669
0.0143122
0.0138756
0.0133838
0.012844
0.0122556
0.0116202
0.010943
0.0102304
0.00949124
0.00873751
0.00797993
0.00723015
0.00649963
0.00579891
0.00513713
0.0045216
0.0039575
0.00344781
0.0029934
0.00259332
0.00224513
0.00194533
0.00168963
0.00147327
0.0012912
0.00113786
0.00100816
0.000901441
0.000825031
0.0146005
0.0142265
0.0137747
0.0132724
0.0127272
0.0121403
0.0115119
0.0108454
0.0101457
0.00942147
0.0086826
0.00793917
0.00720243
0.00648364
0.00579345
0.0051413
0.00453474
0.00397912
0.0034774
0.00303023
0.00263631
0.00229282
0.00199591
0.00174107
0.00152352
0.00133841
0.00118038
0.00104487
0.000932648
0.000853796
0.0145569
0.0141684
0.0137043
0.0131934
0.0126453
0.0120598
0.0114378
0.0107807
0.0100921
0.00937971
0.00865176
0.00791784
0.00718895
0.0064765
0.0057916
0.00514428
0.00454262
0.00399229
0.0034963
0.00305507
0.00266685
0.00232826
0.00203487
0.0017818
0.0015642
0.00137693
0.00121544
0.00107562
0.000958969
0.000878242
0.0145456
0.0141441
0.0136688
0.0131502
0.0125998
0.0120157
0.011399
0.0107493
0.0100691
0.00936488
0.00864361
0.0079145
0.0071885
0.00647741
0.00579305
0.00514623
0.00454575
0.0039977
0.00350518
0.00306839
0.00268506
0.00235115
0.00206159
0.00181099
0.00159431
0.00140617
0.00124246
0.00109927
0.000978985
0.000896653
0.0145736
0.0141598
0.0136732
0.0131468
0.0125935
0.0120104
0.0113969
0.0107518
0.0100768
0.00937668
0.00865758
0.00792846
0.00720043
0.00648591
0.0057976
0.00514725
0.00454443
0.00399572
0.00350437
0.00307034
0.00269085
0.00236118
0.00207554
0.001828
0.0016129
0.00142516
0.00126031
0.0011145
0.000991226
0.000907441
0.0146484
0.0142218
0.0137228
0.0131869
0.012629
0.0120457
0.0114331
0.0107895
0.0101159
0.00941545
0.00869374
0.00795963
0.00722458
0.00650185
0.00580518
0.00514734
0.00453875
0.0039865
0.00349396
0.0030609
0.00268405
0.00235799
0.00207622
0.00183213
0.00161951
0.00143312
0.00126788
0.00112012
0.000994376
0.000909208
0.0147781
0.0143373
0.0138237
0.0132756
0.0127107
0.0121244
0.0115097
0.0108642
0.0101877
0.00948215
0.00875273
0.00800837
0.00726114
0.0065253
0.0058158
0.00514651
0.0045287
0.00396997
0.00347385
0.00303991
0.00266439
0.00234123
0.0020632
0.0018229
0.0016134
0.00142914
0.00126406
0.0011149
0.000987246
0.000900809
0.0149723
0.0145147
0.0139833
0.0134194
0.0128445
0.0122509
0.0116303
0.0109787
0.0102945
0.00957847
0.00883576
0.00807553
0.00731063
0.00655656
0.00582958
0.00514474
0.00451416
0.00394594
0.00344379
0.00300708
0.00263157
0.00231055
0.00203602
0.00179969
0.00159368
0.00141175
0.00124763
0.00109772
0.000968861
0.000881373
0.0152427
0.0147643
0.0142109
0.0136264
0.0130365
0.0124309
0.0117998
0.0111369
0.0104393
0.00970685
0.00894463
0.00816233
0.00737385
0.00659609
0.00584674
0.00514203
0.00449494
0.0039141
0.0034034
0.00296204
0.00258524
0.0022656
0.00199422
0.00176178
0.00155964
0.00138039
0.00121769
0.00106779
0.000938643
0.000850464
0.0156033
0.015099
0.0145184
0.013907
0.0132962
0.0126726
0.0120246
0.0113443
0.0106265
0.00987061
0.00908176
0.00827043
0.00745187
0.00664452
0.00586756
0.00513838
0.00447082
0.00387409
0.00335225
0.00290432
0.00252497
0.00220592
0.00193727
0.00170867
0.00151043
0.00133425
0.00117368
0.00102475
0.000896518
0.000808295
0.0160719
0.0155357
0.0149214
0.0142756
0.0136366
0.0129873
0.0123146
0.0116086
0.010862
0.0100741
0.00925022
0.00840191
0.00754602
0.00670264
0.00589236
0.00513375
0.00444157
0.00382556
0.00328992
0.00283343
0.00245016
0.00213081
0.00186438
0.00163954
0.00144537
0.00127284
0.00111541
0.000968817
0.000843155
0.00075609
0.016672
0.0160967
0.0154413
0.0147518
0.0140751
0.0133902
0.0126828
0.0119399
0.0111535
0.0103228
0.00945381
0.00855931
0.00765792
0.0067713
0.00592142
0.00512806
0.00440688
0.00376813
0.003216
0.00274887
0.00236012
0.00203944
0.00177468
0.00155343
0.00136395
0.00119614
0.00104336
0.000901148
0.000780488
0.000696648
0.0174352
0.0168121
0.0161068
0.0153613
0.0146344
0.0139012
0.0131451
0.012351
0.0115108
0.0106238
0.00969732
0.00874576
0.00778939
0.00685136
0.00595498
0.00512118
0.00436646
0.00370139
0.00313002
0.00265011
0.00225424
0.00193118
0.00166766
0.00145016
0.00126615
0.00110486
0.000959181
0.000824515
0.000712568
0.000635368
0.0184047
0.0177228
0.0169557
0.0161376
0.0153443
0.0145454
0.0137215
0.0128575
0.0119455
0.0109856
0.00998662
0.0089649
0.00794237
0.00694362
0.00599319
0.00511299
0.00432003
0.00362496
0.00303142
0.00253654
0.00213205
0.00180578
0.00154347
0.00133045
0.00115347
0.0010014
0.0008668
0.000744736
0.000647123
0.000581866
0.0196406
0.0188841
0.0180385
0.017125
0.0162427
0.0153533
0.0144373
0.0134792
0.0124723
0.0114185
0.0103285
0.00922074
0.00811888
0.00704886
0.00603621
0.00510338
0.0042674
0.00353855
0.00291989
0.00240788
0.00199351
0.0016638
0.00140353
0.00119706
0.00103036
0.00089192
0.000774552
0.00067318
0.000598405
0.000553134
0.0212272
0.0203727
0.019425
0.0183846
0.0173793
0.0163659
0.0153244
0.0142403
0.0131089
0.0119344
0.0107305
0.00951759
0.00832109
0.00716799
0.00608429
0.00509225
0.00420834
0.00344197
0.00279541
0.00226444
0.00183949
0.00150703
0.00125113
0.00105536
0.000904906
0.000788128
0.000697952
0.000630668
0.000592144
0.000579538
0.0232825
0.0222945
0.0212115
0.0199976
0.0188221
0.0176378
0.016425
0.0151719
0.0138768
0.0125477
0.0112013
0.00986038
0.00855155
0.00730214
0.00613771
0.0050795
0.00414262
0.00333517
0.00265837
0.00210735
0.00167222
0.00133931
0.00109252
0.000915059
0.000791653
0.000710703
0.000665521
0.000654219
0.00067345
0.000714848
0.0259663
0.0247937
0.0235296
0.0220746
0.0206623
0.0192413
0.0177928
0.016312
0.0148019
0.013275
0.0117512
0.010255
0.00881324
0.00745254
0.00619673
0.0050649
0.00407001
0.00321834
0.00250981
0.00193894
0.00149591
0.0011676
0.000938677
0.000792959
0.000715437
0.0006949
0.000724987
0.000806645
0.000917304
0.0010482
0.02948
0.0280578
0.0265482
0.0247605
0.0230185
0.0212668
0.0194945
0.0177074
0.0159155
0.0141362
0.0123921
0.010708
0.00910938
0.0076203
0.00626129
0.00504799
0.00399022
0.00309188
0.00235149
0.00176313
0.00131762
0.0010035
0.000807799
0.000716813
0.000717418
0.00079899
0.000955206
0.00118873
0.00144029
0.00171158
0.0340578
0.032305
0.0304749
0.0282366
0.0260376
0.0238239
0.0216091
0.0194126
0.0172535
0.015154
0.0131372
0.0112262
0.00944279
0.00780587
0.0063306
0.0050275
0.00390218
0.00295569
0.00218518
0.00158488
0.00114732
0.000864371
0.000727859
0.000729515
0.000860723
0.0011122
0.00147396
0.00194528
0.00240338
0.00287601
0.0399426
0.0377597
0.0355147
0.0326754
0.0298504
0.0270124
0.0242083
0.0214776
0.0188497
0.01635
0.0139996
0.0118168
0.00981627
0.00800912
0.00640255
0.00500004
0.00380193
0.00280614
0.00200905
0.00140637
0.000994329
0.000770723
0.000735419
0.000889229
0.00123099
0.00175242
0.00243361
0.00325629
0.00399925
0.00474293
0.0472654
0.0445242
0.0417226
0.0381137
0.0344901
0.0308706
0.0273365
0.0239515
0.0207541
0.0177708
0.0150192
0.0125104
0.0102503
0.00824024
0.00647786
0.00495871
0.00367749
0.00262943
0.00181133
0.00122242
0.000865244
0.00074639
0.000876209
0.00126626
0.00192324
0.00283757
0.00397282
0.00527732
0.00641702
0.00751723
0.0565359
0.0528588
0.0491501
0.0446378
0.0401322
0.0356614
0.0313214
0.0271888
0.0233132
0.0197288
0.016457
0.0135084
0.0108847
0.00858112
0.00658874
0.00489742
0.00349829
0.00238568
0.00155849
0.00102055
0.000780359
0.000850087
0.00124333
0.00197098
0.00303498
0.00441858
0.00607679
0.00795224
0.00972282
0.011456
0.0709147
0.066174
0.0613747
0.0558084
0.0501937
0.0445239
0.0389296
0.0335367
0.028444
0.0237286
0.0194414
0.0156093
0.0122396
0.00932652
0.00685808
0.00482153
0.00320822
0.00201584
0.00125005
0.000922376
0.00104549
0.00162816
0.00266738
0.00414107
0.0060035
0.00817844
0.0105682
0.0131147
0.0153597
0.0176225
0.115653
0.10715
0.0974841
0.0876498
0.0778386
0.0680494
0.0584997
0.0493982
0.0409162
0.033187
0.0262962
0.0202812
0.0151429
0.0108602
0.00740528
0.00475677
0.00290893
0.00187659
0.00169126
0.00239396
0.0040234
0.00659888
0.0101054
0.0144822
0.019619
0.0253572
0.0314981
0.0379916
0.0446706
0.0507373
0.0150191
0.0149465
0.0148772
0.0148155
0.0147641
0.0147258
0.014706
0.0147108
0.0147467
0.0148209
0.0149412
0.0151165
0.0153572
0.015676
0.0160882
0.0166131
0.0172758
0.0181102
0.0191634
0.020502
0.0222201
0.0244501
0.027371
0.031203
0.0361981
0.04263
0.0507929
0.0615684
0.0778616
0.125171
0.0149329
0.014882
0.0148388
0.0148063
0.0147915
0.0147971
0.014827
0.0148858
0.0149791
0.0151137
0.0152975
0.0155398
0.015852
0.016248
0.0167449
0.0173643
0.0181346
0.0190941
0.0202957
0.0218126
0.023748
0.0262451
0.029495
0.0337307
0.0392153
0.0462671
0.055399
0.0676709
0.08537
0.135392
0.0149646
0.014961
0.0149648
0.0149772
0.0150057
0.0150551
0.0151305
0.0152374
0.0153821
0.0155719
0.0158151
0.0161217
0.016504
0.0169768
0.0175588
0.0182739
0.0191537
0.0202406
0.0215927
0.0232899
0.0254431
0.0282054
0.0317786
0.0364042
0.0423516
0.0499813
0.0600033
0.0736446
0.0923348
0.146732
0.0151261
0.0151707
0.0152221
0.015281
0.0153565
0.0154539
0.0155792
0.0157385
0.0159388
0.0161878
0.0164948
0.0168705
0.017328
0.0178834
0.0185569
0.0193744
0.0203701
0.02159
0.0230954
0.0249702
0.0273291
0.0303287
0.0341717
0.0390932
0.045349
0.0533355
0.064026
0.0790699
0.0984466
0.15891
0.0153983
0.0154863
0.0155832
0.0156884
0.0158118
0.0159596
0.0161383
0.0163546
0.0166158
0.0169304
0.0173081
0.0177605
0.0183019
0.0189493
0.0197244
0.0206553
0.0217788
0.0231432
0.0248127
0.0268731
0.0294402
0.0326696
0.0367584
0.0419247
0.048399
0.0566083
0.0678481
0.0844294
0.103983
0.171787
0.0157549
0.0158813
0.0160202
0.0161706
0.0163419
0.016541
0.016775
0.017051
0.0173769
0.0177615
0.0182152
0.0187504
0.019382
0.0201282
0.0210122
0.0220637
0.0233214
0.0248357
0.0266718
0.0289157
0.0316815
0.0351195
0.039415
0.044761
0.0513535
0.05965
0.0713461
0.0897864
0.108979
0.185843
0.0161671
0.0163266
0.0165038
0.0166972
0.0169155
0.0171658
0.0174555
0.0177923
0.0181843
0.0186411
0.0191734
0.0197943
0.0205191
0.0213673
0.0223629
0.0235371
0.0249298
0.0265923
0.02859
0.0310072
0.0339539
0.0375723
0.0420318
0.0474933
0.0541105
0.0623696
0.0744408
0.0952529
0.113573
0.201754
0.0166046
0.0167927
0.0170041
0.0172376
0.0175008
0.0178009
0.0181452
0.0185418
0.0189993
0.0195275
0.0201378
0.0208435
0.0216607
0.0226092
0.0237142
0.0250076
0.0265298
0.0283323
0.0304794
0.0330529
0.0361575
0.0399261
0.0445102
0.0500331
0.0565977
0.0647121
0.0770699
0.100935
0.117954
0.220243
0.0170383
0.0172509
0.0174922
0.017762
0.018067
0.0184139
0.01881
0.0192635
0.0197833
0.0203795
0.0210638
0.0218499
0.0227541
0.023797
0.025004
0.0264075
0.0280481
0.0299762
0.0322551
0.0349636
0.0382009
0.0420909
0.0467674
0.052312
0.0587668
0.0666528
0.0791873
0.106908
0.122351
0.241894
0.0174415
0.0176748
0.017942
0.0182439
0.0185862
0.0189755
0.0194188
0.0199242
0.0205008
0.0211589
0.0219101
0.0227686
0.0237511
0.0248782
0.0261758
0.0276759
0.0294187
0.0314542
0.0338437
0.0366634
0.0400078
0.0439939
0.0487394
0.0542812
0.0605909
0.0681952
0.0807768
0.113184
0.127004
0.266867
0.0177927
0.0180429
0.0183317
0.0186608
0.0190354
0.0194613
0.0199456
0.0204961
0.0211219
0.0218332
0.022642
0.0235624
0.0246114
0.0258097
0.0271829
0.028763
0.0305896
0.0327116
0.0351892
0.038096
0.0415233
0.0455834
0.0503817
0.0559096
0.0620591
0.0693635
0.0818594
0.119685
0.13208
0.294554
0.0180758
0.0183395
0.0186456
0.0189967
0.0193973
0.0198532
0.020371
0.0209582
0.0216239
0.0223782
0.0232333
0.0242034
0.0253053
0.0265598
0.0279923
0.0296343
0.0315251
0.0337128
0.0362562
0.0392272
0.0427149
0.0468297
0.0516694
0.0571817
0.0631735
0.0701937
0.082494
0.12619
0.137577
0.323244
0.0182814
0.018555
0.018874
0.0192415
0.0196619
0.0201402
0.0206829
0.0212975
0.0219928
0.0227791
0.0236685
0.024675
0.0258156
0.0271108
0.0285857
0.0302718
0.0322078
0.0344413
0.0370301
0.0400445
0.0435727
0.0477251
0.0525962
0.0580958
0.0639465
0.0707249
0.0827681
0.13233
0.143229
0.350213
0.0184064
0.0186864
0.0190138
0.0193921
0.0198253
0.0203182
0.0208771
0.0215094
0.0222239
0.0230309
0.0239422
0.0249721
0.0261372
0.0274579
0.0289595
0.030673
0.0326369
0.0348983
0.0375144
0.0405545
0.0441063
0.0482816
0.0531743
0.0586655
0.0644045
0.0710029
0.0827829
0.137485
0.148369
0.372086
0.0184528
0.018736
0.0190675
0.0194511
0.0198904
0.0203903
0.0209568
0.0215974
0.022321
0.0231377
0.0240594
0.0251
0.0262764
0.0276089
0.0291227
0.0308488
0.0328256
0.0351
0.0377287
0.0407806
0.0443434
0.0485297
0.0534349
0.0589245
0.0646029
0.0711056
0.0826852
0.140448
0.151612
0.384549
0.0184272
0.0187105
0.0190421
0.0194258
0.019865
0.0203648
0.0209311
0.0215716
0.0222948
0.0231111
0.0240323
0.0250723
0.026248
0.0275798
0.029093
0.0308189
0.0327958
0.0350706
0.0376999
0.0407528
0.0443171
0.0485058
0.0534138
0.0589063
0.0645868
0.0710925
0.0826564
0.140394
0.151574
0.385026
0.0183294
0.0186098
0.0189376
0.0193163
0.0197495
0.0202422
0.0208006
0.0214323
0.022146
0.0229519
0.0238618
0.0248898
0.0260529
0.0273717
0.0288719
0.0305847
0.0325488
0.0348115
0.0374297
0.040473
0.0440297
0.0482117
0.053113
0.0586123
0.0643579
0.0709647
0.082702
0.137342
0.148268
0.373455
0.0181536
0.0184279
0.0187476
0.019116
0.0195367
0.0200151
0.0205575
0.0211713
0.0218656
0.0226503
0.0235375
0.0245413
0.0256789
0.0269713
0.0284441
0.0301293
0.0320659
0.0343016
0.0368943
0.0399144
0.0434509
0.0476146
0.0524991
0.0580113
0.0638733
0.0706652
0.0826522
0.132146
0.143102
0.352297
0.0178987
0.0181634
0.0184709
0.0188234
0.0192253
0.0196818
0.0201997
0.0207865
0.021451
0.0222036
0.0230561
0.024023
0.0251213
0.0263725
0.0278025
0.0294436
0.0313354
0.0335264
0.0360755
0.0390548
0.0425541
0.0466839
0.0515405
0.057069
0.063078
0.0701183
0.0823685
0.126022
0.137463
0.325844
0.0175692
0.0178209
0.0181117
0.018443
0.0188196
0.019247
0.0197323
0.020283
0.020908
0.0216176
0.0224238
0.0233408
0.0243861
0.0255809
0.0269516
0.0285309
0.0303589
0.0324853
0.0349703
0.0378876
0.0413292
0.0454066
0.0502239
0.0557707
0.0619446
0.06928
0.0817527
0.119581
0.132011
0.297492
0.0171755
0.0174107
0.0176806
0.0179855
0.0183309
0.0187227
0.0191679
0.0196744
0.020251
0.0209079
0.0216569
0.0225123
0.0234913
0.0246151
0.0259104
0.0274099
0.0291547
0.0311952
0.0335932
0.0364249
0.039785
0.0437893
0.048554
0.0541172
0.0604607
0.0681127
0.0807167
0.11318
0.127006
0.269989
0.0167343
0.0169496
0.0171944
0.0174683
0.0177773
0.0181278
0.0185269
0.0189826
0.0195034
0.0200995
0.0207823
0.0215659
0.0224672
0.0235072
0.0247123
0.0261156
0.0277584
0.0296918
0.0319796
0.0347004
0.0379531
0.0418604
0.0465553
0.0521242
0.0586246
0.066582
0.0791966
0.10702
0.122445
0.245082
0.0162677
0.0164597
0.0166756
0.0169143
0.0171826
0.0174874
0.017836
0.0182359
0.0186958
0.0192251
0.0198352
0.0205395
0.0213545
0.0223007
0.023404
0.0246973
0.0262218
0.0280293
0.0301848
0.0327696
0.0358879
0.0396713
0.0442724
0.0498236
0.0564482
0.064664
0.0771626
0.101167
0.118159
0.22342
0.0158023
0.0159672
0.0161503
0.0163503
0.0165749
0.0168311
0.0171263
0.0174677
0.0178635
0.0183229
0.0188566
0.0194773
0.0202009
0.0210471
0.022041
0.0232148
0.0246094
0.0262762
0.028281
0.0307075
0.0336649
0.037295
0.0417704
0.0472655
0.0539595
0.0623536
0.0746213
0.0955956
0.113908
0.204882
0.0153674
0.0155008
0.0156473
0.0158055
0.0159843
0.0161905
0.0164311
0.016713
0.017044
0.0174327
0.0178892
0.0184255
0.0190565
0.019801
0.0206831
0.0217336
0.0229922
0.0245098
0.0263513
0.0286021
0.0313754
0.0348222
0.0391334
0.0445197
0.0512072
0.0596729
0.0716109
0.0902294
0.109464
0.188926
0.0149929
0.0150898
0.0151956
0.0153099
0.0154418
0.0155975
0.0157836
0.0160066
0.0162738
0.0165934
0.0169747
0.0174289
0.0179701
0.0186158
0.0193886
0.0203179
0.0214415
0.0228081
0.0244814
0.0265464
0.0291185
0.0323552
0.0364614
0.0416763
0.048264
0.0566732
0.0681888
0.0849637
0.10464
0.174856
0.0147075
0.0147625
0.0148241
0.0148928
0.014977
0.0150825
0.0152151
0.0153811
0.0155873
0.0158412
0.0161517
0.0165291
0.0169864
0.01754
0.0182108
0.0190263
0.0200217
0.0212432
0.0227515
0.0246297
0.0269929
0.0300008
0.0338658
0.038846
0.0452323
0.0534435
0.0644327
0.079691
0.0992986
0.162018
0.014537
0.0145454
0.0145603
0.0145822
0.0146188
0.0146751
0.0147564
0.0148684
0.0150175
0.0152107
0.015456
0.0157634
0.0161448
0.0166155
0.0171949
0.0179081
0.0187878
0.0198767
0.0212319
0.0229333
0.0250931
0.0278685
0.0314724
0.0361698
0.042263
0.0501343
0.0604682
0.074353
0.0934014
0.149937
0.0145005
0.0144629
0.0144306
0.0144062
0.0143973
0.0144071
0.01444
0.0145008
0.0145953
0.0147303
0.0149135
0.0151546
0.0154649
0.0158587
0.0163536
0.0169722
0.0177435
0.0187064
0.0199132
0.0214379
0.0233856
0.0259044
0.0291965
0.0335167
0.0391559
0.0464508
0.0558933
0.068439
0.0866049
0.13868
0.0145905
0.0145297
0.0144674
0.0144099
0.0143605
0.0143225
0.0143015
0.0143038
0.0143365
0.0144069
0.0145231
0.0146944
0.0149316
0.0152477
0.0156588
0.0161843
0.0168496
0.0176891
0.018751
0.0201028
0.0218408
0.0241021
0.0270756
0.031002
0.0361527
0.0428179
0.0512824
0.0623631
0.0792033
0.12852
0.118963
0.110314
0.100364
0.090167
0.0799795
0.0698329
0.0599585
0.0505738
0.0418533
0.0339304
0.0268883
0.0207602
0.0155422
0.0112088
0.00772801
0.00507546
0.00324312
0.00224471
0.00211093
0.00288184
0.00459462
0.00726546
0.0108739
0.0153507
0.0205749
0.0263751
0.0325417
0.0390187
0.0456337
0.0516268
0.0723166
0.0676124
0.0627566
0.0570367
0.0512414
0.0453958
0.0396441
0.0341195
0.0289224
0.024128
0.0197836
0.0159119
0.0125164
0.0095884
0.00711302
0.00507543
0.00346506
0.0022775
0.00151665
0.00119251
0.00131637
0.00189585
0.00292696
0.00438671
0.0062285
0.00837465
0.0107281
0.0132345
0.0154145
0.0176452
0.0573673
0.0537515
0.0500509
0.0454775
0.0408768
0.0363026
0.0318637
0.0276448
0.0236989
0.0200605
0.0167492
0.013773
0.011131
0.00881572
0.00681615
0.00511994
0.0037159
0.00259579
0.0017557
0.00119674
0.000925191
0.000952074
0.00129122
0.00195528
0.00294943
0.00426111
0.00585151
0.00767139
0.00939052
0.0111093
0.0477592
0.0450528
0.042256
0.0386099
0.0349347
0.0312633
0.0276823
0.0242578
0.0210292
0.0180224
0.0152541
0.0127342
0.0104672
0.00845317
0.00668873
0.00516791
0.00388359
0.00282868
0.0019973
0.00138616
0.000996264
0.000834463
0.000913611
0.00124954
0.00185364
0.00272016
0.00381496
0.00508809
0.00621162
0.00731248
0.0401331
0.037964
0.0357137
0.0328554
0.0300163
0.0271732
0.0243699
0.0216433
0.0190204
0.0165252
0.0141789
0.0119995
0.010002
0.0081976
0.00659322
0.00519164
0.0039919
0.00299004
0.00218026
0.00155641
0.00111403
0.000852306
0.000774806
0.000887644
0.00119475
0.00169087
0.00235582
0.00316803
0.00390905
0.00465229
0.0340206
0.0322725
0.0304358
0.0281942
0.0260058
0.0238173
0.0216343
0.0194706
0.0173412
0.0152661
0.0132682
0.0113712
0.00959781
0.00796801
0.00649733
0.005196
0.00406877
0.00311536
0.00233153
0.00171064
0.00124554
0.000930098
0.000759761
0.000730677
0.000838034
0.00107454
0.00142962
0.00189925
0.00236039
0.0028339
0.0292892
0.0278723
0.0263616
0.0245832
0.0228653
0.021152
0.0194256
0.0176856
0.0159373
0.0141948
0.0124795
0.010817
0.00923391
0.00775545
0.00640286
0.00519181
0.00413165
0.00322555
0.00247153
0.00186383
0.00139441
0.00105403
0.000832629
0.000719395
0.000703311
0.000774727
0.000927031
0.0011615
0.00141916
0.00169686
0.0256785
0.0245154
0.0232569
0.0218188
0.0204358
0.0190572
0.0176586
0.0162301
0.0147698
0.0132865
0.0117982
0.0103293
0.00890767
0.00756091
0.00631365
0.00518515
0.00418818
0.00332884
0.00260739
0.00201928
0.0015564
0.00120775
0.000960156
0.000799032
0.000710152
0.000682418
0.000709251
0.000791338
0.000907583
0.00104634
0.0229361
0.0219593
0.0208864
0.0196926
0.0185478
0.0174057
0.0162424
0.0150423
0.0137992
0.0125172
0.0112106
0.00990141
0.00861662
0.0073845
0.00623121
0.00517817
0.0042405
0.00342657
0.00273847
0.00217285
0.00172179
0.00137363
0.00111379
0.000926277
0.00079574
0.000710024
0.000662008
0.000649687
0.000671489
0.000717982
0.0208425
0.0199988
0.0190632
0.0180453
0.01707
0.016097
0.0151031
0.0140709
0.0129916
0.011866
0.0107047
0.00952694
0.00835797
0.00722542
0.00615572
0.0051713
0.00428865
0.00351777
0.00286214
0.0023194
0.00188208
0.00153853
0.00127399
0.00107229
0.000918076
0.00079869
0.000706252
0.000636546
0.000597265
0.000585794
0.0192297
0.0184824
0.0176491
0.0167577
0.015905
0.015054
0.0141834
0.0132754
0.0123201
0.0113157
0.0102702
0.00920032
0.00812905
0.00708263
0.0060869
0.00516434
0.0043321
0.00360113
0.00297594
0.00245498
0.00203141
0.00169404
0.00142859
0.00121939
0.00105156
0.000912266
0.000793113
0.000688437
0.000610302
0.000562795
0.0179747
0.0172996
0.0165446
0.0157476
0.0149832
0.0142207
0.0134403
0.0126245
0.0117627
0.010852
0.00989852
0.00891667
0.00792741
0.00695512
0.00602434
0.00515699
0.00437028
0.00367561
0.00307814
0.00257708
0.00216625
0.00183521
0.0015705
0.00135725
0.00118119
0.00102969
0.00089369
0.000767827
0.000665121
0.000595223
0.0169916
0.0163721
0.0156777
0.0149523
0.014253
0.0135556
0.0128412
0.0120934
0.0113018
0.010463
0.00958207
0.00867178
0.00775097
0.00684197
0.00596768
0.00514901
0.00440282
0.00374056
0.00316783
0.00268439
0.00228482
0.00195949
0.00169587
0.00148009
0.00129847
0.00113862
0.000992061
0.000853529
0.000735629
0.000652358
0.0162193
0.015644
0.0149982
0.014328
0.013678
0.0130276
0.0123609
0.0116624
0.0109225
0.0101384
0.0093144
0.00846197
0.0075979
0.00674241
0.00591666
0.00514033
0.00442964
0.00379587
0.00324477
0.00277658
0.00238655
0.00206585
0.00180284
0.00158471
0.00139855
0.00123287
0.00107975
0.000934047
0.000807427
0.000717014
0.0156138
0.0150749
0.014469
0.0138418
0.0132286
0.0126122
0.0119787
0.0113149
0.0106125
0.00986947
0.00908996
0.00828398
0.00746648
0.0066557
0.00587109
0.00513105
0.00445098
0.00384182
0.0033093
0.00285402
0.00247175
0.00215433
0.0018911
0.00167029
0.00147996
0.00131001
0.00115283
0.00100358
0.000872812
0.000779613
0.0151432
0.0146347
0.0140617
0.0134679
0.0128817
0.012289
0.0116774
0.0110373
0.0103616
0.0096492
0.00890401
0.00813486
0.00735505
0.00658108
0.00583081
0.00512138
0.0044673
0.00387901
0.00336215
0.00291746
0.00254112
0.00222566
0.00196128
0.00173725
0.00154307
0.00136975
0.00121011
0.00105973
0.000927915
0.000834843
0.0147836
0.0143003
0.0137539
0.0131856
0.0126185
0.0120412
0.0114437
0.0108188
0.0101617
0.00947164
0.00875239
0.00801186
0.00726198
0.00651777
0.00579566
0.00511158
0.00447913
0.00390819
0.00340416
0.00296779
0.00259565
0.00228087
0.00201454
0.00178702
0.00158917
0.00141308
0.00125205
0.00110204
0.000971081
0.000879725
0.0145166
0.0140538
0.0135282
0.0129787
0.0124242
0.0118563
0.0112671
0.0106513
0.0100064
0.00933193
0.00863152
0.00791246
0.00718571
0.006465
0.00576547
0.00510192
0.00448703
0.00393007
0.00343613
0.00300594
0.00263633
0.00232111
0.00205227
0.00182127
0.00161988
0.00144148
0.00127971
0.00113089
0.00100182
0.00091274
0.014327
0.0138807
0.0133714
0.0128352
0.0122884
0.0117255
0.0111403
0.0105291
0.00989091
0.00922615
0.00853835
0.0078345
0.00712482
0.006422
0.00574003
0.00509258
0.00449145
0.00394527
0.00345879
0.00303269
0.00266407
0.00234742
0.00207561
0.00184108
0.00163658
0.00145629
0.00129412
0.00114694
0.00102026
0.000933484
0.0142028
0.0137697
0.0132731
0.0127465
0.0122038
0.0116425
0.011058
0.0104476
0.00981149
0.0091512
0.00847045
0.00777618
0.00707813
0.00638813
0.00571909
0.00508365
0.0044927
0.00395425
0.00347268
0.00304866
0.00267961
0.00236063
0.0020855
0.00184753
0.00164026
0.00145815
0.00129626
0.00115101
0.00102701
0.000942382
0.0141338
0.0137119
0.0132256
0.0127063
0.0121657
0.0116034
0.0110166
0.0104037
0.00976538
0.00910477
0.00842601
0.00773618
0.00704475
0.00636286
0.00570245
0.00507515
0.00449097
0.00395729
0.00347816
0.00305427
0.00268342
0.00236133
0.00208255
0.00184124
0.00163169
0.00144849
0.00128725
0.00114421
0.00102306
0.000940349
0.0141114
0.0137001
0.013223
0.0127096
0.0121703
0.011605
0.0110134
0.0103949
0.00975066
0.00908527
0.00840382
0.00771365
0.00702414
0.00634587
0.00568994
0.00506702
0.00448629
0.0039545
0.00347541
0.00304978
0.0026758
0.00234986
0.00206724
0.0018228
0.00161154
0.00142796
0.00126798
0.00112766
0.00100965
0.000928718
0.0141278
0.0137279
0.0132599
0.0127522
0.012214
0.0116453
0.0110467
0.0104197
0.00976606
0.0090918
0.00840328
0.00770825
0.00701612
0.00633707
0.00568148
0.00505917
0.00447854
0.00394578
0.0034644
0.00303523
0.00265693
0.00232651
0.00203997
0.00179277
0.00158021
0.00139732
0.00123957
0.00110252
0.000988189
0.000908999
0.0141754
0.0137888
0.0133316
0.0128305
0.0122937
0.0117215
0.0111147
0.0104767
0.00981092
0.00912407
0.00842445
0.00772023
0.00702096
0.00633664
0.00567708
0.00505143
0.00446742
0.00393079
0.00344483
0.0030105
0.00262688
0.00229158
0.00200121
0.00175172
0.00153864
0.00135746
0.00120277
0.00107015
0.000960205
0.000882903
0.0142464
0.0138763
0.0134332
0.0129411
0.0124076
0.0118316
0.011216
0.0105653
0.0098851
0.00918263
0.00846818
0.00775055
0.00703952
0.00634513
0.0056769
0.00504356
0.0044524
0.00390884
0.00341608
0.00297518
0.00258557
0.00224537
0.00195161
0.00170058
0.001488
0.00130917
0.00115888
0.00103187
0.00092721
0.000852353
0.0143327
0.0139837
0.0135592
0.0130804
0.0125514
0.0119731
0.0113489
0.0106851
0.00998915
0.0092689
0.00853629
0.00780108
0.00707337
0.00636352
0.00568125
0.00503521
0.00443264
0.00387886
0.0033771
0.00292851
0.00253273
0.00218816
0.00189196
0.00164049
0.00142949
0.00125414
0.00110925
0.000989183
0.000890978
0.000819445
0.0144244
0.0141027
0.0137032
0.0132421
0.0127212
0.012143
0.0115122
0.0108364
0.0101249
0.00938585
0.00863223
0.00787515
0.00712521
0.00639356
0.0056907
0.0050259
0.00440683
0.00383913
0.00332617
0.00286916
0.00246769
0.00212007
0.00182315
0.00157293
0.00136495
0.00119427
0.00105548
0.000943404
0.000853501
0.000786455
0.0145083
0.0142234
0.0138566
0.0134182
0.0129105
0.0123374
0.0117049
0.011021
0.0102959
0.00953862
0.00876181
0.00797826
0.00719956
0.00643824
0.00570647
0.00501513
0.00437319
0.00378714
0.00326072
0.00279506
0.00238925
0.00204078
0.0017457
0.0014992
0.00129627
0.00113173
0.00100033
0.000896788
0.00081603
0.000755123
0.0145712
0.0143425
0.0140176
0.0136105
0.0131253
0.0125667
0.0119406
0.0112545
0.0105192
0.00974434
0.00894124
0.00812425
0.00730689
0.00650409
0.00573104
0.0050017
0.00432763
0.00371686
0.00317378
0.00269945
0.00229114
0.00194467
0.00165478
0.00141534
0.00122047
0.00106446
0.000941694
0.000847149
0.000775438
0.000724579
0.0145938
0.0144469
0.0141739
0.0138061
0.0133522
0.0128175
0.0122079
0.011529
0.0107885
0.0099965
0.00916396
0.00830656
0.00744109
0.00658626
0.00576157
0.00498517
0.00427192
0.00363196
0.00306999