/*--------------------------------*- C++ -*----------------------------------*\
  =========                 |
  \\      /  F ield         | OpenFOAM: The Open Source CFD Toolbox
   \\    /   O peration     | Website:  https://openfoam.org
    \\  /    A nd           | Version:  12
     \\/     M anipulation  |
\*---------------------------------------------------------------------------*/
FoamFile
{
    format      ascii;
    class       volVectorField;
    location    "80";
    object      U;
}
// * * * * * * * * * * * * * * * * * * * * * * * * * * * * * * * * * * * * * //

dimensions      [0 1 -1 0 0 0 0];

internalField   nonuniform List<vector> 
6750
(
(0.200066 -0.00316626 0)
(0.200337 -0.00973188 0)
(0.200605 -0.0158123 0)
(0.200838 -0.0214631 0)
(0.200694 -0.0267675 0)
(0.200037 -0.00352663 0)
(0.200272 -0.0102923 0)
(0.200461 -0.0162866 0)
(0.200519 -0.021634 0)
(0.200374 -0.0264082 0)
(0.200026 -0.00368652 0)
(0.200121 -0.0105046 0)
(0.200121 -0.0163539 0)
(0.199975 -0.021395 0)
(0.199701 -0.025712 0)
(0.20001 -0.00371657 0)
(0.199951 -0.0104367 0)
(0.199755 -0.0160748 0)
(0.199424 -0.0208305 0)
(0.199018 -0.0248262 0)
(0.199995 -0.00364443 0)
(0.199794 -0.0101369 0)
(0.199411 -0.015508 0)
(0.1989 -0.0199866 0)
(0.198347 -0.023722 0)
(0.199984 -0.00348804 0)
(0.19965 -0.0096406 0)
(0.199089 -0.0146881 0)
(0.198395 -0.0188731 0)
(0.197674 -0.0223555 0)
(0.199973 -0.00326212 0)
(0.199516 -0.00897604 0)
(0.19878 -0.0136409 0)
(0.197898 -0.0174994 0)
(0.196996 -0.0207105 0)
(0.199964 -0.00297793 0)
(0.199389 -0.00816644 0)
(0.198482 -0.0123904 0)
(0.197413 -0.0158823 0)
(0.196323 -0.0187921 0)
(0.199956 -0.0026452 0)
(0.199271 -0.00723469 0)
(0.198202 -0.0109651 0)
(0.196952 -0.0140501 0)
(0.195677 -0.0166258 0)
(0.199949 -0.0022738 0)
(0.199164 -0.00620573 0)
(0.197948 -0.00939909 0)
(0.196532 -0.0120422 0)
(0.195084 -0.0142533 0)
(0.199942 -0.00187419 0)
(0.199072 -0.00510659 0)
(0.197729 -0.00773135 0)
(0.196169 -0.00990586 0)
(0.194569 -0.0117282 0)
(0.199938 -0.00145707 0)
(0.198999 -0.0039652 0)
(0.197552 -0.00600276 0)
(0.195875 -0.00769201 0)
(0.194151 -0.00910961 0)
(0.199934 -0.00103285 0)
(0.198945 -0.00280866 0)
(0.197421 -0.00425339 0)
(0.195657 -0.00545107 0)
(0.193841 -0.00645696 0)
(0.19993 -0.000610801 0)
(0.198913 -0.00166187 0)
(0.197338 -0.00251954 0)
(0.195518 -0.00322898 0)
(0.193641 -0.00382498 0)
(0.199921 -0.000202744 0)
(0.198908 -0.000544475 0)
(0.197302 -0.000830019 0)
(0.195454 -0.00106406 0)
(0.193547 -0.00126046 0)
(0.199921 0.00020266 0)
(0.198908 0.000544113 0)
(0.197302 0.000829351 0)
(0.195454 0.0010631 0)
(0.193547 0.00125924 0)
(0.19993 0.000610717 0)
(0.198913 0.00166151 0)
(0.197338 0.00251887 0)
(0.195518 0.00322802 0)
(0.193641 0.00382376 0)
(0.199934 0.00103277 0)
(0.198945 0.0028083 0)
(0.197421 0.00425272 0)
(0.195657 0.00545011 0)
(0.193841 0.00645574 0)
(0.199938 0.00145699 0)
(0.198999 0.00396484 0)
(0.197552 0.00600209 0)
(0.195875 0.00769105 0)
(0.194151 0.00910839 0)
(0.199942 0.0018741 0)
(0.199072 0.00510623 0)
(0.197729 0.00773068 0)
(0.196169 0.0099049 0)
(0.194569 0.0117269 0)
(0.199949 0.00227372 0)
(0.199164 0.00620536 0)
(0.197948 0.00939842 0)
(0.196532 0.0120413 0)
(0.195084 0.0142521 0)
(0.199956 0.00264511 0)
(0.199271 0.00723433 0)
(0.198202 0.0109644 0)
(0.196952 0.0140491 0)
(0.195677 0.0166245 0)
(0.199964 0.00297784 0)
(0.199389 0.00816608 0)
(0.198482 0.0123897 0)
(0.197413 0.0158813 0)
(0.196323 0.0187909 0)
(0.199973 0.00326204 0)
(0.199516 0.00897567 0)
(0.19878 0.0136402 0)
(0.197898 0.0174984 0)
(0.196996 0.0207092 0)
(0.199984 0.00348795 0)
(0.19965 0.00964022 0)
(0.199089 0.0146875 0)
(0.198395 0.0188721 0)
(0.197674 0.0223543 0)
(0.199995 0.00364434 0)
(0.199794 0.0101365 0)
(0.199411 0.0155073 0)
(0.198901 0.0199856 0)
(0.198347 0.0237207 0)
(0.20001 0.00371647 0)
(0.199951 0.0104363 0)
(0.199755 0.0160741 0)
(0.199424 0.0208294 0)
(0.199018 0.0248249 0)
(0.200026 0.00368643 0)
(0.200121 0.0105042 0)
(0.200121 0.0163531 0)
(0.199975 0.0213939 0)
(0.199701 0.0257105 0)
(0.200037 0.00352653 0)
(0.200272 0.0102919 0)
(0.200461 0.0162858 0)
(0.200519 0.0216329 0)
(0.200374 0.0264066 0)
(0.200066 0.00316614 0)
(0.200337 0.00973141 0)
(0.200605 0.0158115 0)
(0.200838 0.0214618 0)
(0.200695 0.0267659 0)
(0.198494 -0.0386655 0)
(0.196744 -0.0442995 0)
(0.195261 -0.0494381 0)
(0.194238 -0.0540256 1.79286e-22)
(0.193527 -0.0579485 0)
(0.193066 -0.0611451 0)
(0.192845 -0.0635499 -1.25305e-20)
(0.192848 -0.0650691 1.26412e-20)
(0.193054 -0.0655881 1.04463e-22)
(0.193385 -0.0650692 6.67869e-21)
(0.193823 -0.0633435 1.26444e-23)
(0.194281 -0.0603011 -1.96455e-23)
(0.19468 -0.0560034 -3.44318e-21)
(0.194937 -0.0505219 -3.39256e-21)
(0.194975 -0.0440022 -7.81754e-21)
(0.194741 -0.0366569 7.82043e-21)
(0.194202 -0.0287476 -3.07063e-21)
(0.193359 -0.0205583 -2.75909e-21)
(0.192241 -0.0123733 2.96805e-22)
(0.190894 -0.00445072 3.27079e-22)
(0.189381 0.0029982 5.18027e-21)
(0.187773 0.00982947 -7.4509e-23)
(0.186148 0.0159263 8.15844e-21)
(0.18457 0.0212294 -8.08628e-21)
(0.183092 0.0257223 0)
(0.18176 0.0294198 0)
(0.180607 0.0323571 -9.27515e-23)
(0.179663 0.034582 0)
(0.178955 0.0361471 0)
(0.178473 0.0370779 0)
(0.197601 -0.042056 0)
(0.196019 -0.0475893 0)
(0.194827 -0.0522808 0)
(0.193995 -0.0563435 -1.69455e-22)
(0.193403 -0.0597636 0)
(0.193035 -0.062501 0)
(0.192891 -0.0644854 1.2811e-20)
(0.192953 -0.0656218 -1.31205e-20)
(0.193198 -0.0658063 -9.82324e-23)
(0.193551 -0.0650149 0)
(0.193991 -0.0630504 0)
(0.194426 -0.0598719 -6.25214e-21)
(0.19479 -0.0555316 6.27183e-21)
(0.195004 -0.0501026 0)
(0.194999 -0.0437237 -2.06499e-20)
(0.194728 -0.0365906 2.065e-20)
(0.194166 -0.0289399 0)
(0.193315 -0.021029 5.44398e-21)
(0.192202 -0.0131123 -5.47151e-21)
(0.190874 -0.00542264 0)
(0.18939 0.0018476 0)
(0.187815 0.00855648 6.98901e-23)
(0.186213 0.0145973 -8.13093e-21)
(0.184649 0.0199092 8.19199e-21)
(0.183174 0.0244689 0)
(0.181828 0.0282829 0)
(0.180643 0.0313785 8.73288e-23)
(0.179645 0.0337958 0)
(0.178863 0.0355875 0)
(0.178304 0.0368156 0)
(0.196761 -0.044663 0)
(0.195502 -0.0496731 0)
(0.194493 -0.0539355 0)
(0.193752 -0.057656 1.33148e-20)
(0.193232 -0.0607874 -1.34622e-20)
(0.192935 -0.0632663 1.40552e-20)
(0.192853 -0.0650107 -1.41873e-20)
(0.192971 -0.0659242 2.15669e-22)
(0.193252 -0.0659162 0)
(0.193638 -0.0649531 0)
(0.194088 -0.0628387 -2.13661e-22)
(0.194516 -0.0595723 0)
(0.194857 -0.0551948 0)
(0.195033 -0.0497825 -4.88704e-23)
(0.194978 -0.0434717 -3.35829e-20)
(0.194649 -0.0364507 3.35831e-20)
(0.194026 -0.0289443 4.33782e-23)
(0.193117 -0.0211947 0)
(0.19195 -0.0134406 0)
(0.190575 -0.00589944 1.49624e-22)
(0.189052 0.00124694 0)
(0.187446 0.0078556 0)
(0.18582 0.0138336 -1.35285e-22)
(0.184234 0.0191208 -7.48866e-21)
(0.182736 0.0236921 7.41892e-21)
(0.181366 0.0275505 -6.47303e-21)
(0.18015 0.030718 6.38643e-21)
(0.179109 0.0332289 0)
(0.178277 0.0351368 0)
(0.177724 0.0365686 0)
(0.196018 -0.0470006 0)
(0.194983 -0.0515791 -2.92129e-20)
(0.194078 -0.0554973 1.46971e-20)
(0.193405 -0.0589175 3.0691e-20)
(0.192953 -0.061774 -3.10649e-20)
(0.19272 -0.0639956 1.5448e-20)
(0.192697 -0.0654981 0)
(0.192869 -0.0661866 4.83254e-22)
(0.193183 -0.0659939 0)
(0.193605 -0.0648502 0)
(0.194068 -0.0625924 7.55888e-21)
(0.194496 -0.0592398 -7.14023e-21)
(0.194817 -0.0548267 0)
(0.194953 -0.0494321 5.13075e-23)
(0.194842 -0.04319 -4.59591e-20)
(0.194442 -0.0362815 4.59592e-20)
(0.193736 -0.0289204 -4.55414e-23)
(0.192738 -0.0213347 0)
(0.191481 -0.0137486 -4.9578e-21)
(0.190019 -0.00636543 4.63433e-21)
(0.188414 0.000644065 1.34735e-22)
(0.186734 0.00714836 0)
(0.185045 0.0130551 -2.35315e-22)
(0.183403 0.0183077 0)
(0.181857 0.022881 6.59418e-21)
(0.180444 0.0267755 -1.23811e-20)
(0.179188 0.0300095 1.13419e-20)
(0.178103 0.0326104 4.6888e-21)
(0.177226 0.0346288 -1.00228e-20)
(0.176706 0.0362612 0)
(0.195252 -0.0492207 0)
(0.194352 -0.0534231 3.33904e-20)
(0.193526 -0.0570198 -3.28035e-20)
(0.192923 -0.0601442 0)
(0.192538 -0.062726 0)
(0.192366 -0.0646904 5.35201e-22)
(0.192398 -0.0659521 0)
(0.192619 -0.0664185 -5.06377e-22)
(0.192969 -0.0660408 7.93201e-21)
(0.193422 -0.0647121 -8.04106e-21)
(0.193896 -0.0623149 -7.74667e-21)
(0.194321 -0.0588728 7.54482e-21)
(0.194619 -0.0544197 2.19731e-22)
(0.194711 -0.049037 -1.03973e-22)
(0.194536 -0.0428569 -5.77913e-20)
(0.194053 -0.0360545 5.77914e-20)
(0.193252 -0.0288336 8.56844e-23)
(0.192147 -0.0214097 -1.59697e-22)
(0.190779 -0.0139931 4.79417e-21)
(0.189206 -0.00677371 -4.62024e-21)
(0.187494 8.91704e-05 -4.32522e-21)
(0.185714 0.00647355 4.15418e-21)
(0.183934 0.0122922 2.46609e-22)
(0.182212 0.0174919 0)
(0.180596 0.0220484 -1.91767e-22)
(0.179122 0.0259612 0)
(0.177813 0.0292454 0)
(0.176678 0.0319229 -9.89378e-21)
(0.17575 0.0340391 9.47163e-21)
(0.175263 0.035862 0)
(0.194386 -0.0513237 3.50182e-20)
(0.193568 -0.0551664 -5.49933e-20)
(0.192816 -0.058455 1.80807e-20)
(0.192281 -0.0612954 0)
(0.191958 -0.0636134 1.81698e-20)
(0.191843 -0.0653302 -1.77857e-20)
(0.191927 -0.0663598 1.7296e-20)
(0.192194 -0.0666137 -1.7926e-20)
(0.192578 -0.0660528 0)
(0.193056 -0.0645402 -5.29492e-22)
(0.193537 -0.0620068 7.90927e-21)
(0.193954 -0.0584726 -4.18343e-21)
(0.194222 -0.0539736 -6.78318e-22)
(0.194263 -0.0485936 -3.46161e-21)
(0.194017 -0.042464 -6.90749e-20)
(0.193446 -0.0357552 6.90713e-20)
(0.19254 -0.0286626 -2.7907e-21)
(0.191321 -0.021391 5.16898e-22)
(0.189832 -0.0141384 -2.13754e-21)
(0.188135 -0.0070824 4.60559e-21)
(0.186302 -0.000371116 2.43536e-22)
(0.184407 0.00588188 0)
(0.182519 0.0115964 -6.83046e-21)
(0.180699 0.0167237 6.95632e-21)
(0.178995 0.0212413 -6.05218e-21)
(0.177444 0.0251489 5.82676e-21)
(0.176068 0.0284596 3.07369e-22)
(0.174874 0.0311912 4.72995e-21)
(0.173889 0.0333833 -1.41086e-20)
(0.173421 0.0353715 1.00693e-20)
(0.193373 -0.0532925 -1.86002e-20)
(0.192606 -0.0567902 2.10091e-20)
(0.191921 -0.0597896 2.09375e-20)
(0.191449 -0.0623627 -2.1227e-20)
(0.191185 -0.06443 1.96835e-20)
(0.191124 -0.0659096 -2.11436e-20)
(0.191257 -0.0667165 -6.3444e-22)
(0.191563 -0.0667687 0)
(0.19198 -0.0660213 9.03562e-21)
(0.192476 -0.0643294 1.21287e-22)
(0.192959 -0.0616625 6.81308e-23)
(0.19336 -0.0580333 -8.61225e-21)
(0.193592 -0.0534822 -3.44094e-21)
(0.193576 -0.0480956 5.40217e-21)
(0.193253 -0.0420049 -8.13341e-20)
(0.192588 -0.0353767 7.81656e-20)
(0.191575 -0.0283997 4.11518e-21)
(0.190237 -0.0212695 -2.97342e-21)
(0.188623 -0.0141733 -4.44749e-21)
(0.186798 -0.00727774 1.0471e-22)
(0.184838 -0.000720525 5.70896e-23)
(0.182821 0.0053933 3.69868e-21)
(0.180816 0.0109907 0)
(0.178887 0.0160278 1.50242e-22)
(0.177084 0.0204854 -5.06122e-21)
(0.175444 0.0243639 5.36739e-21)
(0.17399 0.0276761 -4.71414e-21)
(0.172725 0.0304367 4.34806e-21)
(0.171673 0.0326802 4.49078e-21)
(0.171206 0.0348017 -5.07877e-21)
(0.192176 -0.0551224 0)
(0.191439 -0.0582948 1.99135e-20)
(0.190815 -0.061026 -2.42422e-20)
(0.190402 -0.0633478 2.26889e-20)
(0.190192 -0.0651761 -2.1669e-20)
(0.190182 -0.0664277 1.96359e-20)
(0.190365 -0.0670178 -1.98064e-20)
(0.190698 -0.0668784 -1.27909e-21)
(0.191147 -0.0659391 -6.20626e-22)
(0.191652 -0.0640742 -5.95344e-22)
(0.192132 -0.0612735 -5.61975e-22)
(0.19251 -0.057546 2.65477e-22)
(0.192698 -0.0529366 -4.04382e-21)
(0.192619 -0.0475351 2.06074e-21)
(0.192216 -0.0414729 -8.77882e-20)
(0.191454 -0.0349138 9.0988e-20)
(0.190332 -0.028041 1.17094e-21)
(0.188877 -0.021042 -2.30125e-21)
(0.187138 -0.0140947 1.32924e-22)
(0.185187 -0.00735576 5.00839e-22)
(0.1831 -0.000953277 2.11991e-22)
(0.180958 0.005016 1.9043e-22)
(0.178834 0.010486 3.44294e-22)
(0.176792 0.0154182 -5.64698e-21)
(0.174883 0.0197968 5.50436e-21)
(0.173146 0.0236244 -4.53116e-21)
(0.171604 0.026914 4.17533e-21)
(0.170258 0.0296788 -3.49675e-21)
(0.169132 0.0319495 4.19336e-21)
(0.168644 0.0341694 0)
(0.19076 -0.0568151 0)
(0.190039 -0.0596832 1.46946e-21)
(0.189472 -0.0621655 -2.01804e-20)
(0.189113 -0.0642499 4.15615e-22)
(0.188955 -0.0658494 2.33827e-20)
(0.188993 -0.0668809 1.40957e-21)
(0.189219 -0.0672603 1.40821e-21)
(0.189579 -0.0669329 -9.22232e-21)
(0.190052 -0.0657992 1.13966e-20)
(0.19056 -0.0637665 -5.4485e-24)
(0.191029 -0.0608301 -4.56839e-21)
(0.191377 -0.0570007 4.59583e-21)
(0.191515 -0.0523277 -1.69955e-21)
(0.191368 -0.0469039 1.96295e-21)
(0.19088 -0.0408614 -9.87243e-20)
(0.190022 -0.0343618 9.87234e-20)
(0.188792 -0.0275833 1.28223e-21)
(0.187221 -0.0207066 -1.43463e-21)
(0.185362 -0.0139011 1.86913e-21)
(0.183288 -0.00731447 -2.46569e-21)
(0.181079 -0.00106605 -2.87093e-23)
(0.178816 0.00475531 2.79181e-21)
(0.176574 0.0100903 -3.15294e-21)
(0.174419 0.0149055 -2.70294e-22)
(0.172402 0.0191893 -3.00832e-22)
(0.170564 0.0229468 3.91355e-21)
(0.168928 0.0261918 -2.46541e-22)
(0.167496 0.0289372 -3.97953e-21)
(0.166287 0.0312117 0)
(0.165759 0.0334947 0)
(0.18909 -0.0583732 0)
(0.18838 -0.0609573 -2.63185e-20)
(0.187865 -0.0632072 4.07309e-22)
(0.187558 -0.0650663 5.21766e-22)
(0.187449 -0.0664455 4.80762e-20)
(0.187532 -0.0672634 -2.48545e-20)
(0.187794 -0.0674387 -1.47207e-21)
(0.188181 -0.0669226 0)
(0.188669 -0.0655935 1.00965e-20)
(0.189175 -0.0633953 -1.02482e-20)
(0.189626 -0.0603217 4.77665e-21)
(0.189935 -0.0563872 -3.94614e-22)
(0.190018 -0.051646 -4.43352e-21)
(0.189799 -0.0461941 1.18323e-22)
(0.189225 -0.0401643 -1.07103e-19)
(0.188269 -0.0337163 1.07148e-19)
(0.186934 -0.0270242 -8.05449e-23)
(0.185252 -0.0202622 -2.17154e-21)
(0.183279 -0.0135922 2.8188e-22)
(0.18109 -0.00715354 2.30104e-21)
(0.178765 -0.00105763 -3.02032e-21)
(0.176387 0.0046141 2.76115e-21)
(0.174033 0.00980866 0)
(0.171768 0.0144979 2.82503e-22)
(0.169646 0.0186741 -3.49187e-21)
(0.167707 0.0223451 6.80727e-21)
(0.165974 0.0255261 -2.25459e-22)
(0.16445 0.0282307 1.58367e-22)
(0.163156 0.030487 -2.7784e-21)
(0.16257 0.0327993 0)
(0.187136 -0.0597996 -3.43811e-21)
(0.186433 -0.062118 0)
(0.185968 -0.0641493 -1.66053e-21)
(0.185711 -0.0657929 2.48376e-20)
(0.185649 -0.0669591 -2.70226e-20)
(0.185775 -0.0675681 2.55934e-20)
(0.186064 -0.0675461 -2.58364e-20)
(0.186477 -0.0668341 -1.19368e-20)
(0.186973 -0.0653118 2.50056e-20)
(0.187471 -0.0629494 -8.77401e-23)
(0.187897 -0.0597372 -1.01714e-20)
(0.188163 -0.0556949 4.57231e-21)
(0.188185 -0.050882 -2.52756e-21)
(0.187891 -0.0453977 -3.12139e-21)
(0.18723 -0.0393755 -1.13715e-19)
(0.186178 -0.0329734 1.15286e-19)
(0.184741 -0.0263616 -1.82945e-21)
(0.182953 -0.0197085 -8.49478e-22)
(0.180874 -0.0131687 2.04506e-21)
(0.178578 -0.00687417 -3.29798e-21)
(0.176146 -0.000928805 2.98241e-22)
(0.173663 0.00459276 4.18353e-21)
(0.171205 0.00964348 -2.02526e-21)
(0.168837 0.0142001 -2.99761e-21)
(0.166613 0.0182587 2.95609e-21)
(0.164576 0.02183 -2.41123e-21)
(0.162747 0.024931 2.41564e-21)
(0.161131 0.027576 -9.20188e-23)
(0.159748 0.0297945 0)
(0.159091 0.032105 4.56183e-22)
(0.184866 -0.0610962 3.57566e-21)
(0.18417 -0.0631647 -3.03993e-20)
(0.183754 -0.0649882 2.91299e-20)
(0.183546 -0.0664241 1.77541e-21)
(0.183528 -0.0673825 1.75636e-21)
(0.183694 -0.0677849 0)
(0.184007 -0.0675704 -1.69669e-21)
(0.184442 -0.0666558 -1.42899e-20)
(0.184939 -0.0649449 2.40817e-20)
(0.185424 -0.062417 -1.28759e-20)
(0.185818 -0.0590645 -6.80517e-22)
(0.186036 -0.0549128 4.73018e-21)
(0.185993 -0.0500262 -4.7556e-21)
(0.185622 -0.0445069 -1.23078e-22)
(0.184874 -0.0384893 -1.21065e-19)
(0.183728 -0.0321296 1.21017e-19)
(0.182194 -0.0255942 7.5973e-23)
(0.180308 -0.0190458 -1.91993e-21)
(0.178131 -0.0126324 1.9097e-21)
(0.175737 -0.00647874 1.89651e-22)
(0.17321 -0.000681961 -1.84413e-21)
(0.170631 0.00468968 3.6887e-21)
(0.168078 0.0095946 -1.42729e-21)
(0.165616 0.0140141 1.01418e-22)
(0.163299 0.0179478 0)
(0.161168 0.0214092 -1.25864e-22)
(0.159247 0.024417 -1.09938e-22)
(0.15754 0.026987 1.2438e-21)
(0.156069 0.0291506 -1.10748e-21)
(0.155331 0.0314318 -4.74429e-22)
(0.182247 -0.0622636 0)
(0.181561 -0.0640947 -5.66208e-23)
(0.181194 -0.0657182 3.05649e-20)
(0.181034 -0.0669519 -3.11572e-20)
(0.18106 -0.0677061 -2.97793e-20)
(0.181262 -0.0679053 4.63444e-20)
(0.181599 -0.0674966 -1.28544e-20)
(0.18205 -0.066376 -2.35301e-23)
(0.182543 -0.0644783 -1.64848e-21)
(0.183009 -0.0617843 0)
(0.183367 -0.0582909 -5.40741e-21)
(0.183531 -0.0540292 1.0333e-20)
(0.183421 -0.0490685 -4.91268e-21)
(0.182971 -0.0435138 1.28788e-22)
(0.182137 -0.0374999 -1.2642e-19)
(0.180901 -0.0311815 1.26464e-19)
(0.179276 -0.0247206 -7.94975e-23)
(0.1773 -0.0182748 -1.76155e-21)
(0.175034 -0.0119854 3.11986e-21)
(0.172553 -0.00597048 -1.35805e-21)
(0.169941 -0.00032067 0)
(0.167278 0.00490162 1.16974e-22)
(0.164641 0.00965982 -7.6308e-23)
(0.162094 0.0139393 -5.52341e-22)
(0.159692 0.0177431 9.65145e-22)
(0.157476 0.0210871 -5.1877e-22)
(0.155467 0.0239916 -6.49379e-23)
(0.153673 0.026474 9.6033e-23)
(0.152117 0.0285686 -6.66747e-23)
(0.151293 0.0307974 0)
(0.179247 -0.0633001 0)
(0.178575 -0.0649026 -3.05631e-20)
(0.178258 -0.0663312 3.32905e-20)
(0.178147 -0.0673665 3.01549e-20)
(0.178218 -0.0679186 -3.27083e-20)
(0.17845 -0.0679177 -1.71946e-20)
(0.178813 -0.0673076 8.22014e-22)
(0.179273 -0.0659803 1.68674e-20)
(0.179759 -0.0638972 3.45522e-21)
(0.180201 -0.061037 0)
(0.180518 -0.0574029 0)
(0.180625 -0.0530323 -4.36936e-21)
(0.180445 -0.0479989 5.35898e-21)
(0.179916 -0.0424104 0)
(0.178998 -0.0364018 -1.305e-19)
(0.177676 -0.0301256 1.30496e-19)
(0.175966 -0.0237399 0)
(0.173908 -0.0173965 1.47181e-21)
(0.171563 -0.0112305 -1.71601e-21)
(0.169008 -0.00535333 0)
(0.166322 0.000150503 0)
(0.163588 0.00522402 -1.62843e-22)
(0.160879 0.00983521 1.16036e-23)
(0.158259 0.0139732 -2.70833e-22)
(0.155783 0.0176439 1.89911e-22)
(0.153489 0.0208653 1.00433e-21)
(0.151401 0.0236591 -1.09672e-21)
(0.149525 0.0260444 -1.04137e-21)
(0.147887 0.0280587 1.03567e-21)
(0.146974 0.0302163 0)
(0.175828 -0.0642011 0)
(0.175178 -0.0655781 0)
(0.174913 -0.0668163 0)
(0.174853 -0.0676551 -3.20984e-20)
(0.174968 -0.0680044 1.58644e-20)
(0.17523 -0.0678062 1.90218e-20)
(0.175618 -0.0669851 2.03016e-21)
(0.176082 -0.0654545 1.4871e-20)
(0.176558 -0.0631852 -1.13485e-21)
(0.176972 -0.0601593 -1.41029e-20)
(0.177243 -0.0563862 -7.69508e-22)
(0.177291 -0.0519093 -1.38216e-21)
(0.17704 -0.0468068 -2.85886e-21)
(0.176433 -0.0411884 2.1337e-21)
(0.175434 -0.0351891 -1.33078e-19)
(0.174031 -0.0289588 1.33085e-19)
(0.172244 -0.0226513 1.01454e-21)
(0.170113 -0.0164124 -7.45781e-22)
(0.167701 -0.0103709 2.73542e-22)
(0.165082 -0.00463189 6.14991e-23)
(0.162336 0.000726063 -2.97745e-22)
(0.159543 0.00565105 6.11867e-22)
(0.156775 0.0101152 -2.25953e-22)
(0.154094 0.014111 1.47031e-22)
(0.151554 0.0176467 -9.29398e-22)
(0.149192 0.0207423 -1.56389e-21)
(0.147033 0.0234205 2.52187e-21)
(0.145082 0.025702 0)
(0.14337 0.0276273 0)
(0.142367 0.029699 0)
(0.171954 -0.0649551 -3.7091e-20)
(0.171334 -0.0661103 3.90982e-20)
(0.171125 -0.0671599 0)
(0.171119 -0.0678023 -1.81711e-20)
(0.171278 -0.0679487 2.06529e-20)
(0.171571 -0.0675487 1.71257e-20)
(0.17198 -0.0665115 -2.17906e-20)
(0.172447 -0.0647789 0)
(0.172909 -0.0623239 -1.89862e-21)
(0.173291 -0.0591339 0)
(0.173515 -0.0552252 2.67321e-24)
(0.1735 -0.0506468 8.33142e-24)
(0.173178 -0.045481 6.19519e-22)
(0.172495 -0.0398394 2.62061e-22)
(0.171418 -0.033856 -1.34164e-19)
(0.169941 -0.0276781 1.34148e-19)
(0.168084 -0.0214541 -1.2535e-22)
(0.165891 -0.0153242 -1.71793e-22)
(0.163423 -0.00941034 -4.17259e-23)
(0.160754 -0.00381151 -4.46257e-23)
(0.157961 0.00139953 0)
(0.155122 0.00617562 -4.7951e-23)
(0.152308 0.0104927 0)
(0.149579 0.0143461 1.33436e-21)
(0.146987 0.0177461 -1.60804e-21)
(0.144569 0.0207142 -1.8532e-21)
(0.142347 0.0232738 2.01117e-21)
(0.14033 0.0254471 0)
(0.138549 0.0272774 -1.96932e-21)
(0.137461 0.0292523 2.26057e-21)
(0.167582 -0.0655476 0)
(0.167001 -0.0664838 7.0694e-23)
(0.166854 -0.0673447 4.15951e-20)
(0.166906 -0.0677881 -3.97058e-20)
(0.167107 -0.0677315 2.40904e-21)
(0.167437 -0.0671195 -4.66078e-21)
(0.167865 -0.0658651 2.2306e-21)
(0.168332 -0.0639318 0)
(0.168777 -0.0612926 0)
(0.169125 -0.0579418 0)
(0.169297 -0.0539028 8.31683e-22)
(0.16922 -0.0492303 -4.69944e-21)
(0.168827 -0.0440099 7.46524e-21)
(0.16807 -0.0383544 -3.39904e-21)
(0.166921 -0.0323968 -1.32293e-19)
(0.165376 -0.0262802 1.33769e-19)
(0.16346 -0.0201482 -1.21489e-21)
(0.161215 -0.014134 1.61517e-21)
(0.158703 -0.00835331 -8.87093e-22)
(0.155997 -0.00289846 -2.02537e-23)
(0.153171 0.00216326 8.48094e-23)
(0.150301 0.00678921 0)
(0.147455 0.0109588 0)
(0.144691 0.0146696 2.63153e-22)
(0.142059 0.017934 -7.01113e-22)
(0.139596 0.020774 4.24693e-22)
(0.137322 0.0232137 6.0976e-21)
(0.135248 0.0252763 -5.51994e-21)
(0.133406 0.0270079 1.04285e-22)
(0.132236 0.0288787 0)
(0.162669 -0.0659565 -4.14276e-20)
(0.162134 -0.0666816 3.84091e-20)
(0.162056 -0.0673481 1.80948e-20)
(0.16217 -0.0675874 -2.10556e-20)
(0.162418 -0.0673248 -2.21569e-20)
(0.162785 -0.0664908 2.26889e-20)
(0.16323 -0.0650222 1.828e-20)
(0.163697 -0.0628885 -1.63647e-20)
(0.164122 -0.0600677 9.00595e-21)
(0.164433 -0.0565617 -8.07311e-21)
(0.164553 -0.0524004 7.27031e-21)
(0.164412 -0.0476439 -3.70606e-21)
(0.16395 -0.0423807 -2.47898e-21)
(0.163122 -0.0367242 1.2782e-22)
(0.161906 -0.0308051 -1.30136e-19)
(0.160302 -0.0247625 1.30114e-19)
(0.158336 -0.0187336 -4.30344e-23)
(0.156051 -0.012845 -2.68348e-22)
(0.15351 -0.00720518 3.91529e-22)
(0.15078 -0.00190023 -1.60695e-22)
(0.147937 0.00300811 1.03115e-21)
(0.145051 0.00748147 -9.08697e-22)
(0.142187 0.0115023 3.86813e-21)
(0.139402 0.0150705 -3.34348e-21)
(0.136744 0.0181994 -3.53183e-21)
(0.134247 0.0209116 3.42802e-21)
(0.131933 0.0232313 4.10395e-21)
(0.12981 0.0251825 -4.45322e-21)
(0.127915 0.0268134 -6.17808e-21)
(0.12667 0.0285758 5.83291e-21)
(0.15716 -0.0661589 -2.73926e-21)
(0.156681 -0.0666745 -4.34908e-20)
(0.15668 -0.0671393 4.76228e-20)
(0.15686 -0.06717 0)
(0.157162 -0.0666933 -2.70756e-21)
(0.157566 -0.065633 0)
(0.158028 -0.0639515 -2.5166e-21)
(0.158494 -0.0616195 1.80212e-20)
(0.158897 -0.0586222 -1.93955e-20)
(0.159168 -0.0549691 9.96833e-22)
(0.159234 -0.0506967 -1.77272e-21)
(0.15903 -0.0458698 -7.62727e-22)
(0.1585 -0.0405794 -3.26958e-22)
(0.157606 -0.0349384 -1.32673e-22)
(0.15633 -0.0290747 -1.24463e-19)
(0.154676 -0.0231221 1.24453e-19)
(0.152672 -0.0172111 4.46684e-23)
(0.150361 -0.0114609 3.87853e-23)
(0.147804 -0.00597274 6.89014e-23)
(0.145067 -0.000826014 0)
(0.142222 0.00392289 2.15704e-22)
(0.139335 0.0082397 3.86328e-21)
(0.136469 0.0121097 -3.85402e-21)
(0.133678 0.0155344 -6.71411e-22)
(0.131007 0.0185279 0)
(0.12849 0.021113 -7.23915e-22)
(0.126146 0.0233136 0)
(0.123986 0.025154 -9.36382e-21)
(0.122047 0.0266839 9.82175e-21)
(0.120733 0.0283361 -4.76794e-22)
(0.150993 -0.0661211 -4.34412e-20)
(0.150583 -0.0664238 4.56186e-20)
(0.150667 -0.066679 9.71155e-23)
(0.150918 -0.0664983 2.5379e-20)
(0.151281 -0.0657944 -4.23826e-20)
(0.151723 -0.0645097 2.53428e-20)
(0.152203 -0.0626164 2.59052e-21)
(0.152665 -0.0600902 3.96875e-23)
(0.153044 -0.0569242 0)
(0.153273 -0.0531357 -1.02943e-21)
(0.153285 -0.0487674 -4.9195e-21)
(0.153018 -0.0438881 7.61056e-21)
(0.152424 -0.0385904 3.17731e-22)
(0.151469 -0.0329862 -7.53783e-22)
(0.150141 -0.0271991 -1.15001e-19)
(0.148447 -0.0213568 1.16234e-19)
(0.146417 -0.0155825 -3.69205e-22)
(0.144094 -0.00998731 1.64466e-23)
(0.141537 -0.00466472 -1.23078e-21)
(0.13881 0.000312572 1.14622e-21)
(0.13598 0.00489358 -2.22757e-22)
(0.13311 0.00904794 0)
(0.130259 0.0127635 -6.34618e-22)
(0.127478 0.0160429 6.91128e-22)
(0.124809 0.0189008 -5.66739e-21)
(0.122285 0.0213596 1.37963e-20)
(0.119924 0.0234424 -5.57491e-21)
(0.117737 0.0251735 1.58725e-22)
(0.115764 0.0266035 -1.04195e-20)
(0.114389 0.0281456 1.10323e-20)
(0.144094 -0.0657963 0)
(0.143768 -0.0658806 0)
(0.143945 -0.0659192 -2.70976e-20)
(0.144278 -0.0655179 2.19245e-20)
(0.144704 -0.0645809 0)
(0.145187 -0.0630736 -2.84224e-21)
(0.145684 -0.0609717 -2.77413e-21)
(0.14614 -0.0582584 -2.54934e-21)
(0.146494 -0.0549357 0)
(0.146679 -0.0510279 0)
(0.146635 -0.0465838 -9.37247e-22)
(0.146307 -0.0416755 3.25547e-21)
(0.145651 -0.0363962 -3.53302e-21)
(0.144642 -0.0308553 -1.26925e-22)
(0.143271 -0.0251714 -1.03995e-19)
(0.141549 -0.019465 1.04003e-19)
(0.139507 -0.013851 2.16459e-23)
(0.137189 -0.0084318 4.13265e-22)
(0.134651 -0.00329274 -4.76291e-22)
(0.131952 0.00150041 0)
(0.129155 0.00590205 0)
(0.126321 0.00988559 0)
(0.123503 0.013441 0)
(0.120749 0.0165721 -1.05505e-21)
(0.118099 0.0192933 -9.08856e-22)
(0.115583 0.0216262 0)
(0.113218 0.0235927 -9.13221e-21)
(0.111016 0.0252165 7.04768e-21)
(0.109019 0.0265486 0)
(0.107591 0.0279824 0)
(0.136371 -0.0651214 -3.22706e-21)
(0.136149 -0.0649799 0)
(0.136429 -0.0647968 0)
(0.136853 -0.0641611 0)
(0.137346 -0.0629922 0)
(0.13787 -0.0612646 0)
(0.138383 -0.0589605 2.83327e-21)
(0.138832 -0.0560721 1.35323e-21)
(0.139156 -0.0526097 -9.21536e-21)
(0.139296 -0.048605 2.34425e-21)
(0.139196 -0.0441118 1.61979e-20)
(0.138807 -0.0392048 -1.03201e-20)
(0.138095 -0.0339764 6.95821e-22)
(0.137038 -0.0285323 2.21763e-21)
(0.135635 -0.022985 -8.81353e-20)
(0.1339 -0.0174465 8.80922e-20)
(0.131863 -0.0120223 -2.88222e-22)
(0.129568 -0.00680544 -5.51197e-22)
(0.127067 -0.00187275 3.27561e-21)
(0.124418 0.0027172 -5.27259e-21)
(0.121677 0.00692424 -1.57025e-22)
(0.118899 0.0107254 3.75623e-21)
(0.116135 0.0141126 6.09763e-22)
(0.113427 0.0170901 1.07753e-21)
(0.110813 0.019672 0)
(0.108322 0.0218784 0)
(0.105968 0.0237297 0)
(0.103764 0.0252485 0)
(0.101753 0.0264853 0)
(0.100282 0.0278137 -1.05217e-21)
(0.127717 -0.0640106 6.67688e-21)
(0.127616 -0.0636372 -2.67995e-20)
(0.128014 -0.0632195 2.78444e-20)
(0.128535 -0.0623444 0)
(0.129097 -0.0609463 -2.5428e-20)
(0.129662 -0.0590044 2.9377e-20)
(0.130189 -0.05651 -2.43244e-20)
(0.130626 -0.0534648 2.05929e-20)
(0.130917 -0.0498875 0)
(0.131009 -0.0458165 7.18474e-21)
(0.130851 -0.0413098 -2.40256e-21)
(0.130404 -0.0364432 -9.93743e-21)
(0.129641 -0.0313074 3.16817e-21)
(0.128547 -0.0260027 6.93341e-22)
(0.127124 -0.0206337 -6.83009e-20)
(0.125391 -0.015303 6.75333e-20)
(0.123379 -0.0101057 4.54265e-24)
(0.121128 -0.00512451 -1.07504e-21)
(0.118689 -0.000427291 4.45436e-21)
(0.116113 0.00393483 9.57279e-22)
(0.113451 0.00792711 -4.53952e-21)
(0.110755 0.01153 -6.86095e-22)
(0.108067 0.0147372 -1.25636e-20)
(0.105428 0.0175531 1.01555e-20)
(0.102872 0.0199908 -1.02987e-20)
(0.100424 0.0220687 1.15563e-20)
(0.0980982 0.0238049 0)
(0.0959076 0.0252205 -1.14382e-20)
(0.0938956 0.0263648 1.10742e-20)
(0.092391 0.0275909 2.36865e-21)
(0.11799 -0.0623416 2.15695e-20)
(0.118033 -0.0617285 -2.80539e-20)
(0.11856 -0.0610657 -2.45951e-20)
(0.119181 -0.0599538 2.92696e-20)
(0.119813 -0.0583321 3.00951e-20)
(0.120416 -0.0561883 -5.92476e-20)
(0.120951 -0.0535238 4.0924e-20)
(0.121371 -0.0503499 -1.07115e-20)
(0.121623 -0.0466933 0)
(0.121662 -0.0425983 -8.41577e-21)
(0.121447 -0.0381257 7.59918e-21)
(0.120945 -0.0333512 -3.87466e-22)
(0.120138 -0.0283617 -9.85063e-22)
(0.119018 -0.0232505 1.28883e-21)
(0.117592 -0.0181129 -4.18591e-20)
(0.115881 -0.0130406 4.1628e-20)
(0.113916 -0.00811685 -5.73586e-22)
(0.111736 -0.00341369 4.91274e-22)
(0.109386 0.0010108 -2.64565e-22)
(0.106911 0.00511311 -6.28545e-21)
(0.104358 0.00886395 5.76541e-21)
(0.101771 0.0122471 1.52386e-21)
(0.0991876 0.0152575 7.45864e-21)
(0.0966441 0.0178995 -1.87289e-20)
(0.0941696 0.0201846 2.41528e-20)
(0.0917874 0.0221291 -1.18137e-20)
(0.0895108 0.0237486 -1.41112e-20)
(0.0873516 0.0250617 1.36596e-20)
(0.0853541 0.0261155 1.21219e-20)
(0.0838288 0.0272425 -1.52573e-20)
(0.107008 -0.0599348 3.39808e-20)
(0.107216 -0.0590717 4.06743e-21)
(0.107877 -0.0581669 -4.93449e-21)
(0.108599 -0.0568247 -3.07461e-20)
(0.109296 -0.0549938 -3.52248e-21)
(0.10993 -0.0526719 5.12198e-21)
(0.110465 -0.049871 5.84463e-23)
(0.110857 -0.0466115 0)
(0.111064 -0.0429274 0)
(0.111046 -0.0388673 -8.45124e-21)
(0.110773 -0.0344937 9.58932e-21)
(0.110221 -0.0298799 3.90229e-22)
(0.10938 -0.0251069 0)
(0.108249 -0.0202596 1.56436e-22)
(0.106841 -0.0154216 -9.40879e-21)
(0.105177 -0.0106723 9.30983e-21)
(0.103289 -0.00608213 -2.5795e-22)
(0.10121 -0.00171132 0)
(0.0989821 0.00239216 2.6645e-22)
(0.0966437 0.00619267 -5.58269e-21)
(0.0942343 0.00966636 5.36531e-21)
(0.0917907 0.0128001 -8.32911e-22)
(0.0893462 0.0155899 0)
(0.0869302 0.0180394 1.67465e-22)
(0.0845684 0.0201585 3.00773e-21)
(0.0822809 0.0219604 -1.90622e-21)
(0.0800792 0.0234578 1.659e-20)
(0.0779748 0.0246665 -2.94567e-23)
(0.0760118 0.0256304 1.10165e-21)
(0.0744819 0.0266597 -1.31827e-20)
(0.0945227 -0.0565104 -3.2139e-20)
(0.0949085 -0.0554061 2.75111e-20)
(0.0957023 -0.0542683 0)
(0.0965165 -0.0527148 -2.81228e-20)
(0.0972667 -0.0507057 3.31088e-20)
(0.0979169 -0.0482493 -1.52975e-20)
(0.0984363 -0.0453675 2.48829e-20)
(0.098789 -0.042089 -1.13536e-20)
(0.0989404 -0.0384537 0)
(0.0988617 -0.0345129 0)
(0.0985316 -0.0303282 3.81967e-21)
(0.0979378 -0.0259683 -3.75777e-21)
(0.0970776 -0.0215062 0)
(0.0959583 -0.0170154 7.52557e-23)
(0.0945954 -0.0125665 3.0866e-20)
(0.0930121 -0.00822455 -3.09002e-20)
(0.0912367 -0.00404621 8.31832e-23)
(0.0893007 -7.89294e-05 0)
(0.0872372 0.00363985 2.84083e-21)
(0.0850788 0.00708251 -2.71652e-21)
(0.0828571 0.0102306 0)
(0.0806014 0.0130737 0)
(0.0783381 0.0156086 1.05937e-20)
(0.0760913 0.0178379 -1.9785e-20)
(0.0738819 0.019769 8.21769e-21)
(0.0717266 0.021412 -1.81995e-20)
(0.069635 0.0227761 2.01856e-20)
(0.0676177 0.0238738 0)
(0.0657177 0.0247445 -1.92131e-20)
(0.0642058 0.025674 1.52178e-20)
(0.0801762 -0.0516244 -3.1911e-20)
(0.0807376 -0.0503065 3.10332e-20)
(0.0816459 -0.0489669 -3.26732e-20)
(0.0825287 -0.0472491 4.29568e-22)
(0.083306 -0.0451252 7.98338e-22)
(0.0839473 -0.0426134 4.6676e-20)
(0.0844291 -0.039744 -1.43915e-20)
(0.0847247 -0.0365524 -1.51589e-21)
(0.0848101 -0.0330819 9.8963e-21)
(0.0846676 -0.0293841 -1.83209e-20)
(0.0842871 -0.0255168 8.34338e-21)
(0.0836667 -0.0215412 2.54087e-21)
(0.0828123 -0.0175193 -2.81631e-21)
(0.0817367 -0.0135108 6.48025e-22)
(0.0804589 -0.00957124 7.99823e-20)
(0.0790016 -0.00574957 -7.965e-20)
(0.0773901 -0.00208759 -1.6989e-21)
(0.0756503 0.00138062 4.56443e-21)
(0.0738079 0.00462848 -2.84807e-21)
(0.0718874 0.00763642 -8.86221e-21)
(0.0699118 0.0103911 1.86072e-20)