/*--------------------------------*- C++ -*----------------------------------*\
  =========                 |
  \\      /  F ield         | OpenFOAM: The Open Source CFD Toolbox
   \\    /   O peration     | Website:  https://openfoam.org
    \\  /    A nd           | Version:  12
     \\/     M anipulation  |
\*---------------------------------------------------------------------------*/
FoamFile
{
    format      ascii;
    class       volVectorField;
    location    "80";
    object      UMean;
}
// * * * * * * * * * * * * * * * * * * * * * * * * * * * * * * * * * * * * * //

dimensions      [0 1 -1 0 0 0 0];

internalField   nonuniform List<vector> 
6750
(
(0.200089 -0.00297046 0)
(0.20045 -0.00877319 0)
(0.20081 -0.0138905 0)
(0.201118 -0.0184754 0)
(0.201116 -0.0226761 0)
(0.200036 -0.00343051 0)
(0.200318 -0.00953573 0)
(0.200583 -0.0146496 0)
(0.200743 -0.0190253 0)
(0.200737 -0.0228124 0)
(0.200025 -0.0036116 0)
(0.200153 -0.00982922 0)
(0.200227 -0.0148737 0)
(0.20019 -0.0190457 0)
(0.200056 -0.0225131 0)
(0.200008 -0.00365647 0)
(0.19998 -0.00983806 0)
(0.19986 -0.0147541 0)
(0.19964 -0.0187372 0)
(0.199369 -0.021986 0)
(0.199993 -0.00359909 0)
(0.199822 -0.00961383 0)
(0.199515 -0.0143412 0)
(0.199115 -0.0181328 0)
(0.198692 -0.0212055 0)
(0.199981 -0.00345594 0)
(0.199676 -0.00918895 0)
(0.19919 -0.0136661 0)
(0.198605 -0.0172422 0)
(0.198013 -0.0201372 0)
(0.19997 -0.00324093 0)
(0.199539 -0.00859026 0)
(0.198877 -0.0127545 0)
(0.198102 -0.0160777 0)
(0.197329 -0.018772 0)
(0.19996 -0.00296516 0)
(0.199409 -0.00784099 0)
(0.198574 -0.0116313 0)
(0.197612 -0.0146587 0)
(0.196651 -0.0171199 0)
(0.199951 -0.00263853 0)
(0.199288 -0.00696445 0)
(0.198289 -0.010326 0)
(0.197146 -0.0130153 0)
(0.196002 -0.0152086 0)
(0.199943 -0.00227124 0)
(0.199178 -0.00598613 0)
(0.198031 -0.00887337 0)
(0.196723 -0.0111877 0)
(0.195407 -0.0130811 0)
(0.199936 -0.00187411 0)
(0.199083 -0.00493368 0)
(0.197809 -0.007313 0)
(0.196356 -0.00922363 0)
(0.19489 -0.0107911 0)
(0.199931 -0.00145825 0)
(0.199008 -0.00383551 0)
(0.197629 -0.00568617 0)
(0.19606 -0.00717435 0)
(0.194471 -0.00839784 0)
(0.199927 -0.00103442 0)
(0.198952 -0.00271924 0)
(0.197496 -0.0040333 0)
(0.195841 -0.00509042 0)
(0.194159 -0.00596067 0)
(0.199923 -0.000612194 0)
(0.19892 -0.00161015 0)
(0.197412 -0.00239105 0)
(0.1957 -0.003018 0)
(0.193958 -0.00353441 0)
(0.199914 -0.000203379 0)
(0.198913 -0.000528391 0)
(0.197374 -0.000788667 0)
(0.195635 -0.000995693 0)
(0.193864 -0.00116604 0)
(0.199914 0.000202453 0)
(0.198913 0.000526305 0)
(0.197374 0.000785803 0)
(0.195635 0.000992303 0)
(0.193864 0.00116226 0)
(0.199923 0.000611266 0)
(0.19892 0.00160806 0)
(0.197412 0.00238819 0)
(0.1957 0.00301462 0)
(0.193958 0.00353064 0)
(0.199927 0.00103349 0)
(0.198952 0.00271716 0)
(0.197496 0.00403046 0)
(0.195841 0.00508706 0)
(0.194159 0.00595692 0)
(0.199931 0.00145734 0)
(0.199008 0.00383345 0)
(0.197629 0.00568334 0)
(0.19606 0.00717102 0)
(0.194471 0.00839413 0)
(0.199936 0.00187321 0)
(0.199083 0.00493163 0)
(0.197809 0.0073102 0)
(0.196356 0.00922034 0)
(0.19489 0.0107874 0)
(0.199943 0.00227036 0)
(0.199178 0.00598411 0)
(0.198031 0.00887061 0)
(0.196722 0.0111844 0)
(0.195407 0.0130775 0)
(0.199951 0.00263767 0)
(0.199287 0.00696246 0)
(0.198289 0.0103232 0)
(0.197146 0.0130121 0)
(0.196002 0.0152051 0)
(0.19996 0.00296432 0)
(0.199409 0.00783905 0)
(0.198574 0.0116286 0)
(0.197612 0.0146556 0)
(0.196651 0.0171165 0)
(0.19997 0.00324013 0)
(0.199539 0.00858836 0)
(0.198876 0.0127519 0)
(0.198102 0.0160746 0)
(0.197329 0.0187686 0)
(0.199981 0.00345517 0)
(0.199676 0.00918711 0)
(0.19919 0.0136636 0)
(0.198605 0.0172392 0)
(0.198013 0.0201337 0)
(0.199993 0.00359837 0)
(0.199822 0.00961206 0)
(0.199515 0.0143386 0)
(0.199115 0.0181298 0)
(0.198692 0.021202 0)
(0.200008 0.00365579 0)
(0.19998 0.00983634 0)
(0.19986 0.0147516 0)
(0.19964 0.0187341 0)
(0.199369 0.0219825 0)
(0.200025 0.00361097 0)
(0.200153 0.00982757 0)
(0.200227 0.0148713 0)
(0.20019 0.0190425 0)
(0.200056 0.0225095 0)
(0.200036 0.00342994 0)
(0.200318 0.00953414 0)
(0.200582 0.0146472 0)
(0.200743 0.0190222 0)
(0.200737 0.0228086 0)
(0.200089 0.00296996 0)
(0.20045 0.00877173 0)
(0.20081 0.0138882 0)
(0.201118 0.0184723 0)
(0.201116 0.0226723 0)
(0.199792 -0.0317937 0)
(0.19872 -0.0358753 0)
(0.197892 -0.0395005 0)
(0.197449 -0.0426519 -3.41875e-22)
(0.197264 -0.0452572 0)
(0.197283 -0.0472803 0)
(0.197493 -0.0486755 2.24046e-20)
(0.197883 -0.0493692 -2.25664e-20)
(0.198422 -0.0492748 -1.7102e-22)
(0.199063 -0.0483245 -1.11018e-20)
(0.199771 -0.046373 1.11889e-22)
(0.200469 -0.0433764 1.20748e-22)
(0.201083 -0.0393502 5.58212e-21)
(0.201533 -0.0343577 5.46853e-21)
(0.201749 -0.0285327 1.274e-20)
(0.201679 -0.0220727 -1.27445e-20)
(0.201297 -0.0152229 5.20725e-21)
(0.200608 -0.00825061 4.99973e-21)
(0.199643 -0.00142007 -1.00611e-22)
(0.198457 0.00503526 -8.76837e-23)
(0.197122 0.0109335 -9.95167e-21)
(0.195717 0.016138 1.5298e-22)
(0.194316 0.0205692 -1.92288e-20)
(0.192984 0.0241998 1.90587e-20)
(0.191774 0.0270422 0)
(0.190728 0.0291371 0)
(0.189873 0.0305412 2.86778e-22)
(0.189236 0.0313239 0)
(0.188856 0.0315728 0)
(0.18868 0.0313488 0)
(0.199221 -0.0344366 0)
(0.198291 -0.0384105 0)
(0.19769 -0.0416832 0)
(0.197392 -0.0444379 3.22988e-22)
(0.197296 -0.0466729 0)
(0.197386 -0.0483642 0)
(0.197659 -0.0494588 -1.9938e-20)
(0.198104 -0.0498782 2.03579e-20)
(0.198683 -0.0495451 1.60877e-22)
(0.19936 -0.0483824 0)
(0.200084 -0.0462607 0)
(0.200785 -0.0431599 1.02451e-20)
(0.201392 -0.039097 -1.02774e-20)
(0.201827 -0.0341381 0)
(0.202027 -0.0284115 3.48995e-20)
(0.201943 -0.0221007 -3.48959e-20)
(0.201554 -0.0154295 0)
(0.200865 -0.00864147 -9.60442e-21)
(0.199907 -0.001976 9.64847e-21)
(0.198734 0.00435319 0)
(0.197411 0.0101748 0)
(0.196011 0.0153601 -1.43419e-22)
(0.194603 0.0198298 1.78567e-20)
(0.193251 0.0235504 -1.80006e-20)
(0.192007 0.0265262 0)
(0.19091 0.0287883 0)
(0.189985 0.0303845 -2.69929e-22)
(0.189254 0.0313711 0)
(0.188755 0.031816 0)
(0.188486 0.0317605 0)
(0.198667 -0.0364915 0)
(0.197983 -0.0400539 0)
(0.197524 -0.0430032 0)
(0.197301 -0.0455101 -1.85502e-20)
(0.197268 -0.0475424 1.87577e-20)
(0.197425 -0.0490556 -1.95561e-20)
(0.197768 -0.0499851 1.974e-20)
(0.198285 -0.0502494 -3.20347e-22)
(0.198928 -0.0497785 0)
(0.199671 -0.0484837 0)
(0.200448 -0.0462545 3.1981e-22)
(0.201191 -0.0430801 0)
(0.201826 -0.0389779 0)
(0.202273 -0.0340168 8.28262e-23)
(0.20247 -0.0283235 5.94309e-20)
(0.202369 -0.0220758 -5.9429e-20)
(0.201951 -0.0154879 -8.38276e-23)
(0.201224 -0.00879113 0)
(0.200222 -0.00221233 0)
(0.198999 0.00404516 -3.31185e-22)
(0.197624 0.0098151 0)
(0.196168 0.0149769 0)
(0.194703 0.019454 3.05807e-22)
(0.19329 0.0232117 1.97806e-20)
(0.19198 0.0262507 -1.95963e-20)
(0.190812 0.0285982 1.99264e-20)
(0.189813 0.0302982 -1.96993e-20)
(0.188997 0.0314038 0)
(0.188398 0.0319846 0)
(0.188051 0.0321133 0)
(0.198167 -0.038324 0)
(0.197653 -0.0415501 3.70654e-20)
(0.197278 -0.0442454 -1.88636e-20)
(0.197118 -0.0465402 -3.84566e-20)
(0.197155 -0.0483841 3.89068e-20)
(0.197389 -0.0497236 -1.93661e-20)
(0.197814 -0.0504903 0)
(0.198414 -0.0506026 -6.10711e-22)
(0.199142 -0.0499961 0)
(0.199967 -0.0485703 0)
(0.200818 -0.0462381 -1.13042e-20)
(0.201624 -0.0429918 1.06922e-20)
(0.202304 -0.0388515 0)
(0.202778 -0.0338883 -8.69566e-23)
(0.202977 -0.0282275 8.49886e-20)
(0.202857 -0.0220415 -8.49784e-20)
(0.202398 -0.0155358 8.8002e-23)
(0.201612 -0.00893053 0)
(0.200536 -0.00244091 1.14028e-20)
(0.199228 0.00374052 -1.06415e-20)
(0.197762 0.00945637 -3.5981e-22)
(0.196212 0.0145907 0)
(0.194651 0.0190696 7.06434e-22)
(0.193144 0.0228584 0)
(0.191741 0.0259555 -2.14535e-20)
(0.190482 0.0283843 4.16945e-20)
(0.189393 0.0301844 -4.10336e-20)
(0.188488 0.0314042 -2.02907e-20)
(0.187796 0.0321119 4.02887e-20)
(0.187388 0.0324193 0)
(0.197633 -0.0400609 0)
(0.197225 -0.0430048 -3.74205e-20)
(0.196925 -0.045473 3.6831e-20)
(0.196838 -0.0475667 0)
(0.196955 -0.0492289 0)
(0.197274 -0.0504006 -5.84709e-22)
(0.197788 -0.05101 0)
(0.198481 -0.0509757 6.40322e-22)
(0.199304 -0.0502346 -1.03539e-20)
(0.200221 -0.0486791 1.04245e-20)
(0.201156 -0.046244 1.12441e-20)
(0.202032 -0.0429221 -1.09573e-20)
(0.202764 -0.0387371 -3.52747e-22)
(0.203266 -0.0337623 1.81104e-22)
(0.203468 -0.0281225 1.11635e-19)
(0.203325 -0.0219859 -1.1162e-19)
(0.202818 -0.0155506 -1.92318e-22)
(0.201961 -0.00902714 3.89225e-22)
(0.200796 -0.00262031 -1.23862e-20)
(0.199387 0.00348733 1.19471e-20)
(0.197808 0.00914671 1.26922e-20)
(0.196142 0.0142477 -1.22273e-20)
(0.194463 0.0187199 -7.4034e-22)
(0.192839 0.0225296 0)
(0.191323 0.0256738 7.51411e-22)
(0.189956 0.0281734 0)
(0.188764 0.0300647 0)
(0.187759 0.0313911 4.43323e-20)
(0.186969 0.0322164 -4.23344e-20)
(0.186502 0.0326898 0)
(0.197014 -0.0417166 -3.42334e-20)
(0.19668 -0.0444047 5.40664e-20)
(0.196458 -0.0466658 -1.79851e-20)
(0.196451 -0.0485756 0)
(0.196654 -0.0500712 -1.8732e-20)
(0.197064 -0.0510878 1.84087e-20)
(0.197675 -0.0515504 -1.90977e-20)
(0.198466 -0.0513788 1.98954e-20)
(0.19939 -0.0505057 0)
(0.200402 -0.0488238 6.5791e-22)
(0.201422 -0.0462854 -1.11955e-20)
(0.202368 -0.0428826 5.46621e-21)
(0.203149 -0.0386431 5.71435e-22)
(0.203677 -0.0336431 5.80211e-21)
(0.203879 -0.0280076 1.39551e-19)
(0.203709 -0.0219018 -1.3955e-19)
(0.20315 -0.0155185 6.77633e-21)
(0.202217 -0.00906048 -7.27625e-22)
(0.200957 -0.00272373 6.78205e-21)
(0.199437 0.00331791 -1.33463e-20)
(0.197737 0.00892297 -8.52835e-22)
(0.195943 0.0139874 0)
(0.194134 0.0184448 2.63836e-20)
(0.192381 0.0222634 -2.69596e-20)
(0.190739 0.0254403 2.64563e-20)
(0.189251 0.0279951 -2.53043e-20)
(0.187945 0.0299615 -1.57832e-21)
(0.186831 0.0313798 -2.40729e-20)
(0.185935 0.0323088 6.88567e-20)
(0.185401 0.0329319 -4.80773e-20)
(0.19628 -0.0432926 1.6054e-20)
(0.196007 -0.0457491 -1.81426e-20)
(0.195865 -0.0478267 -1.86415e-20)
(0.195943 -0.0495725 1.8917e-20)
(0.196236 -0.0509173 -1.84842e-20)
(0.196742 -0.0517911 1.99269e-20)
(0.197455 -0.0521161 5.61894e-22)
(0.198345 -0.051815 0)
(0.199371 -0.0508109 -1.06197e-20)
(0.200476 -0.0490053 -1.04757e-21)
(0.201577 -0.0463611 -1.09338e-21)
(0.202589 -0.0428708 1.19483e-20)
(0.203414 -0.0385664 5.85953e-21)
(0.203961 -0.0335271 -9.50124e-21)
(0.204157 -0.0278788 1.71797e-19)
(0.203956 -0.0217854 -1.65122e-19)
(0.20334 -0.0154355 -1.0488e-20)
(0.202329 -0.0090259 7.91834e-21)
(0.200972 -0.00274535 1.45035e-20)
(0.19934 0.0032398 1.07961e-21)
(0.197517 0.00879502 9.91362e-22)
(0.195592 0.013822 -1.44693e-20)
(0.193649 0.0182588 0)
(0.191761 0.0220762 -9.4168e-22)
(0.189987 0.0252722 2.61862e-20)
(0.188371 0.0278663 -2.75594e-20)
(0.186943 0.0298909 2.67351e-20)
(0.185714 0.0313838 -2.47423e-20)
(0.184706 0.0324006 -2.35665e-20)
(0.184096 0.0331539 2.67538e-20)
(0.195409 -0.0448007 0)
(0.195191 -0.0470525 -1.56591e-20)
(0.195131 -0.0489701 1.91416e-20)
(0.195297 -0.05057 -1.87577e-20)
(0.195683 -0.0517772 1.7878e-20)
(0.196288 -0.0525178 -1.77527e-20)
(0.197104 -0.0527117 1.78839e-20)
(0.198092 -0.0522852 1.23514e-21)
(0.199217 -0.0511495 6.4869e-22)
(0.200409 -0.0492204 6.82677e-22)
(0.201585 -0.0464656 7.3387e-22)
(0.202653 -0.0428799 -3.8379e-22)
(0.203513 -0.0384996 6.93471e-21)
(0.204071 -0.0334076 -3.1406e-21)
(0.204255 -0.027731 1.95629e-19)
(0.204016 -0.0216331 -2.02739e-19)
(0.203342 -0.0152997 -3.88484e-21)
(0.202252 -0.00892288 6.57731e-21)
(0.200799 -0.00268534 -4.9219e-22)
(0.199057 0.00325305 -1.96311e-21)
(0.197113 0.00876399 -1.0024e-21)
(0.19506 0.0137547 -1.0021e-21)
(0.192984 0.0181673 -1.99244e-21)
(0.190961 0.0219757 3.27698e-20)
(0.189053 0.0251797 -3.24509e-20)
(0.187308 0.0277991 2.97739e-20)
(0.185755 0.029866 -2.75647e-20)
(0.184406 0.0314169 2.47963e-20)
(0.183284 0.0325049 -2.96224e-20)
(0.182589 0.0333673 0)
(0.194377 -0.0462576 0)
(0.194213 -0.0483309 -9.67664e-22)
(0.194237 -0.0501092 1.45786e-20)
(0.194493 -0.051578 3.2009e-22)
(0.194975 -0.052658 -1.74798e-20)
(0.195679 -0.0532725 -1.18353e-21)
(0.196594 -0.0533398 -1.17438e-21)
(0.197679 -0.0527871 9.06148e-21)
(0.198896 -0.0515181 -1.11306e-20)
(0.200167 -0.0494628 -1.82316e-23)
(0.201409 -0.046591 6.13237e-21)
(0.202522 -0.0429012 -6.16921e-21)
(0.203405 -0.0384342 3.0068e-21)
(0.203966 -0.0332766 -3.43533e-21)
(0.204128 -0.0275577 2.31042e-19)
(0.203848 -0.0214405 -2.31059e-19)
(0.203112 -0.0151089 -4.04553e-21)
(0.201943 -0.00875107 4.53979e-21)
(0.200397 -0.00254456 -7.93022e-21)
(0.198549 0.0033564 1.05155e-20)
(0.19649 0.00882907 -3.47041e-23)
(0.194313 0.0137857 -1.7148e-20)
(0.19211 0.0181726 1.90241e-20)
(0.189957 0.0219666 2.14039e-21)
(0.187919 0.0251698 2.02953e-21)
(0.186046 0.0278029 -3.23493e-20)
(0.184368 0.029898 2.45342e-22)
(0.182899 0.0314914 3.50124e-20)
(0.181662 0.0326348 0)
(0.180877 0.0335856 0)
(0.193162 -0.0476808 0)
(0.193052 -0.0495987 1.65704e-20)
(0.193162 -0.0512542 3.36716e-22)
(0.193509 -0.0526035 4.13449e-22)
(0.194086 -0.0535636 -3.35723e-20)
(0.194888 -0.0540559 1.78333e-20)
(0.195899 -0.0539984 1.22725e-21)
(0.197076 -0.0533157 0)
(0.198375 -0.0519099 -1.04514e-20)
(0.199716 -0.0497233 1.0489e-20)
(0.20101 -0.046727 -6.3403e-21)
(0.202156 -0.0429239 -3.81608e-22)
(0.203052 -0.0383599 6.7946e-21)
(0.203603 -0.0331253 -2.32276e-22)
(0.203737 -0.0273518 2.64643e-19)
(0.203408 -0.0212029 -2.64781e-19)
(0.202608 -0.0148607 2.68902e-22)
(0.201362 -0.00851013 8.91729e-21)
(0.199725 -0.00232433 2.28567e-22)
(0.197777 0.00354754 -1.13333e-20)
(0.195609 0.00898778 1.96908e-20)
(0.193318 0.0139132 -1.84237e-20)
(0.190995 0.0182741 0)
(0.188719 0.0220504 -2.23717e-21)
(0.186558 0.0252461 3.5824e-20)
(0.184562 0.0278834 -7.26685e-20)
(0.182762 0.0299951 2.54835e-22)
(0.181176 0.0316173 -1.66772e-21)
(0.179826 0.0328015 3.27793e-20)
(0.178948 0.0338213 0)
(0.191737 -0.0490861 1.74936e-21)
(0.191685 -0.0508675 0)
(0.19188 -0.052413 9.9429e-22)
(0.192319 -0.0536506 -1.53111e-20)
(0.19299 -0.0544948 1.64646e-20)
(0.193887 -0.0548651 -1.83064e-20)
(0.194984 -0.0546821 1.85792e-20)
(0.196248 -0.0538625 1.05062e-20)
(0.197619 -0.0523153 -2.32916e-20)
(0.199017 -0.0499904 -1.49696e-21)
(0.200351 -0.0468611 1.14985e-20)
(0.201518 -0.0429357 -7.05449e-21)
(0.202413 -0.038265 3.31457e-21)
(0.202945 -0.0329436 6.04161e-21)
(0.20304 -0.0271055 2.98076e-19)
(0.202659 -0.0209148 -3.0219e-19)
(0.201792 -0.0145522 6.58569e-21)
(0.200468 -0.00819971 4.95522e-21)
(0.198745 -0.00202635 -9.53263e-21)
(0.196702 0.00382335 2.23787e-20)
(0.194434 0.00923632 1.58238e-21)
(0.192038 0.0141336 -3.74452e-20)
(0.189604 0.0184691 1.98534e-20)
(0.187215 0.0222256 3.94809e-20)
(0.184939 0.0254091 -3.89341e-20)
(0.182827 0.0280435 3.79817e-20)
(0.180913 0.030162 -3.9839e-20)
(0.179214 0.0318013 2.32314e-21)
(0.177754 0.0330136 0)
(0.176783 0.0340854 -4.32868e-21)
(0.190075 -0.050487 -1.81922e-21)
(0.190081 -0.0521462 1.49332e-20)
(0.190363 -0.0535896 -1.43791e-20)
(0.190892 -0.0547196 -9.98442e-22)
(0.191654 -0.0554484 -1.05796e-21)
(0.19264 -0.0556945 0)
(0.19382 -0.055381 1.14881e-21)
(0.195159 -0.0544165 1.18308e-20)
(0.19659 -0.0527216 -2.15039e-20)
(0.198033 -0.0502498 1.23852e-20)
(0.199394 -0.0469787 8.24197e-22)
(0.200566 -0.0429224 -7.36752e-21)
(0.201449 -0.0381367 7.40712e-21)
(0.20195 -0.0327204 2.58579e-22)
(0.201999 -0.02681 3.37091e-19)
(0.201559 -0.0205702 -3.36941e-19)
(0.200624 -0.0141803 -3.07662e-22)
(0.199224 -0.00781938 1.02924e-20)
(0.197418 -0.00165248 -1.02371e-20)
(0.195288 0.00418021 -1.30957e-21)
(0.192927 0.00956995 2.03552e-20)
(0.190434 0.0144417 -4.45047e-20)
(0.187901 0.0187527 1.87174e-20)
(0.18541 0.0224883 -2.72309e-21)
(0.183028 0.0256565 0)
(0.18081 0.0282825 2.53711e-21)
(0.178788 0.0304004 2.47983e-21)
(0.176983 0.0320473 -3.90157e-20)
(0.17542 0.0332768 3.59386e-20)
(0.174359 0.0343864 4.50163e-21)
(0.188143 -0.0518937 0)
(0.188209 -0.0534393 -8.96336e-23)
(0.188577 -0.0547844 -1.40243e-20)
(0.189193 -0.055807 1.4293e-20)
(0.190042 -0.0564177 1.62794e-20)
(0.191111 -0.0565347 -2.64967e-20)
(0.192366 -0.0560817 7.81713e-21)
(0.193769 -0.0549635 -5.31794e-23)
(0.195249 -0.0531123 1.38118e-21)
(0.196723 -0.0504847 0)
(0.198095 -0.0470634 7.05543e-21)
(0.199261 -0.0428682 -1.48101e-20)
(0.200118 -0.0379608 7.74541e-21)
(0.200577 -0.0324438 -2.70575e-22)
(0.200573 -0.0264562 3.76141e-19)
(0.200069 -0.0201628 -3.76294e-19)
(0.199063 -0.0137416 3.2194e-22)
(0.197588 -0.00736847 1.10548e-20)
(0.195704 -0.00120458 -2.23583e-20)
(0.193493 0.00461421 1.12816e-20)
(0.191049 0.00998332 0)
(0.18847 0.0148314 -2.97057e-21)
(0.185848 0.0191187 -1.03704e-22)
(0.183264 0.0228328 2.59819e-20)
(0.180788 0.0259836 -6.54435e-20)
(0.178473 0.0285975 4.48037e-20)
(0.176354 0.0307091 4.36148e-20)
(0.17445 0.0323563 -4.53992e-20)
(0.172791 0.0335939 -1.04286e-22)
(0.171645 0.0347298 0)
(0.185903 -0.0533116 0)
(0.186031 -0.0547467 1.14782e-20)
(0.186483 -0.055993 -1.25311e-20)
(0.187184 -0.0569048 -1.34965e-20)
(0.188116 -0.0573909 1.46273e-20)
(0.189257 -0.0573718 9.77743e-21)
(0.19058 -0.0567671 8.09514e-22)
(0.192035 -0.0554856 -1.10746e-20)
(0.193551 -0.0534687 -2.83896e-21)
(0.195043 -0.0506759 0)
(0.196412 -0.0470963 0)
(0.197557 -0.042756 7.0929e-21)
(0.198375 -0.037722 -8.63499e-21)
(0.198783 -0.032101 0)
(0.198718 -0.0260339 4.17213e-19)
(0.198145 -0.0196857 -4.17217e-19)
(0.197068 -0.0132322 0)
(0.195519 -0.0068462 -1.11352e-20)
(0.193562 -0.000684548 1.33284e-20)
(0.191277 0.00512119 0)
(0.188759 0.0104705 0)
(0.186104 0.0152956 6.307e-21)
(0.183404 0.0195593 -2.21844e-20)
(0.18074 0.0232516 -1.25488e-22)
(0.178181 0.0263836 2.15989e-20)
(0.175779 0.0289827 4.83153e-20)
(0.173572 0.031084 -5.04256e-20)
(0.171578 0.0327257 -4.574e-20)
(0.16983 0.0339646 4.7501e-20)
(0.168606 0.0351177 0)
(0.183313 -0.0547406 0)
(0.183502 -0.0560622 0)
(0.184036 -0.0572057 0)
(0.184819 -0.0579999 1.26158e-20)
(0.185827 -0.0583521 -5.38509e-21)
(0.187035 -0.0581864 -8.65902e-21)
(0.188415 -0.0574163 -1.09597e-21)
(0.18991 -0.0559616 -1.07552e-20)
(0.191449 -0.0537683 -1.17062e-21)
(0.192943 -0.0508015 1.22712e-20)
(0.194296 -0.0470568 9.00147e-22)
(0.195406 -0.0425668 2.01163e-21)
(0.196175 -0.0374038 5.74538e-21)
(0.196522 -0.0316782 -4.34995e-21)
(0.196387 -0.0255327 4.60219e-19)
(0.195743 -0.0191316 -4.60215e-19)
(0.194594 -0.0126483 -6.48863e-21)
(0.192975 -0.00625173 4.52417e-21)
(0.190948 -9.44149e-05 -3.2366e-21)
(0.188597 0.00569666 -1.68711e-21)
(0.186014 0.0110251 2.7262e-20)
(0.183294 0.0158264 5.81077e-22)
(0.180527 0.020066 -2.7008e-20)
(0.177794 0.0237356 3.44329e-21)
(0.175163 0.0268477 -2.32473e-20)
(0.172686 0.0294301 -2.94244e-20)
(0.1704 0.0315182 5.43362e-20)
(0.168324 0.0331503 0)
(0.166496 0.0343851 0)
(0.165201 0.0355487 0)
(0.180322 -0.056173 9.75916e-21)
(0.180572 -0.0573745 -1.02204e-20)
(0.181186 -0.0584073 0)
(0.182047 -0.0590736 6.24129e-21)
(0.183125 -0.0592803 -7.28389e-21)
(0.184392 -0.0589534 -8.12547e-21)
(0.185818 -0.0580043 1.05427e-20)
(0.187341 -0.056365 0)
(0.188889 -0.0539852 1.4711e-21)
(0.190372 -0.0508365 0)
(0.191695 -0.0469215 -6.97442e-24)
(0.192757 -0.0422795 1.12161e-24)
(0.193465 -0.036988 -1.16645e-21)
(0.193741 -0.0311607 -6.41564e-22)
(0.193532 -0.0249412 5.05879e-19)
(0.192813 -0.0184928 -5.05903e-19)
(0.191592 -0.0119856 7.97032e-22)
(0.189905 -0.00558434 1.67424e-21)
(0.187817 0.000563459 -5.33483e-23)
(0.185408 0.00633556 -5.85726e-23)
(0.182769 0.0116397 0)
(0.179995 0.0164148 -3.60398e-21)
(0.177173 0.0206287 0)
(0.174382 0.0242743 2.19341e-20)
(0.171689 0.0273652 -2.8557e-20)
(0.169148 0.0299295 -2.47618e-20)
(0.166793 0.0320023 2.76343e-20)
(0.164645 0.0336219 0)
(0.162743 0.0348487 -4.73245e-20)
(0.161384 0.036018 5.09792e-20)
(0.176871 -0.0575939 0)
(0.177181 -0.0586646 1.13866e-22)
(0.177873 -0.0595753 -1.01819e-20)
(0.178809 -0.0601 9.95761e-21)
(0.179949 -0.0601478 -7.30256e-22)
(0.181269 -0.059642 1.82459e-21)
(0.18273 -0.0585009 -1.10751e-21)
(0.184269 -0.0566652 0)
(0.185811 -0.0540895 0)
(0.18727 -0.0507526 0)
(0.188548 -0.0466646 -9.6887e-22)
(0.189549 -0.0418712 8.14769e-21)
(0.190185 -0.036455 -1.38462e-20)
(0.190384 -0.0305326 8.34334e-21)
(0.190095 -0.0242476 5.50528e-19)
(0.1893 -0.0177614 -5.56704e-19)
(0.188008 -0.0112402 9.88927e-21)
(0.186259 -0.00484368 -2.25556e-20)
(0.184115 0.00128608 1.64263e-20)
(0.181657 0.00703198 1.89046e-21)
(0.178974 0.0123061 1.99483e-21)
(0.176156 0.0170506 0)
(0.173291 0.0212354 0)
(0.170454 0.0248549 3.85782e-21)
(0.167712 0.027923 -7.77419e-21)
(0.165116 0.0304678 3.89767e-21)
(0.162702 0.0325238 5.94979e-20)
(0.16049 0.034129 -5.44047e-20)
(0.158523 0.0353452 1.57443e-22)
(0.157107 0.0365168 0)
(0.172893 -0.0589784 6.70618e-21)
(0.17326 -0.0599069 -6.16745e-21)
(0.17403 -0.0606794 -3.55442e-21)
(0.175036 -0.0610458 4.20472e-21)
(0.176234 -0.0609178 6.92216e-21)
(0.177598 -0.0602155 -7.17917e-21)
(0.179082 -0.0588696 -8.98232e-21)
(0.180624 -0.0568261 7.94852e-21)
(0.182149 -0.0540465 -7.04659e-21)
(0.183567 -0.0505174 6.41914e-21)
(0.184787 -0.0462566 -9.49676e-21)
(0.185716 -0.0413163 3.755e-21)
(0.186271 -0.0357835 4.22471e-21)
(0.186384 -0.0297767 -3.61347e-22)
(0.186012 -0.0234393 6.02956e-19)
(0.18514 -0.0169293 -6.02991e-19)
(0.183781 -0.0104084 4.62194e-22)
(0.181974 -0.00403008 8.8599e-21)
(0.179784 0.00206941 8.54048e-21)
(0.177287 0.00777859 -1.61978e-20)
(0.174571 0.0130141 1.50013e-20)
(0.171723 0.0177212 -1.46495e-20)
(0.168826 0.0218721 3.87034e-20)
(0.165956 0.0254621 -3.37109e-20)
(0.163176 0.0285051 -2.94533e-20)
(0.160537 0.0310289 2.88011e-20)
(0.158073 0.0330668 3.21022e-20)
(0.155806 0.0346563 -3.51439e-20)
(0.15378 0.0358603 -6.24366e-20)
(0.152312 0.0370318 5.9296e-20)
(0.168307 -0.0602934 2.44657e-22)
(0.168731 -0.0610631 5.01802e-21)
(0.169577 -0.0616781 -5.42702e-21)
(0.170649 -0.0618682 0)
(0.171901 -0.0615445 5.53308e-22)
(0.173299 -0.0606294 0)
(0.174796 -0.0590657 9.35879e-22)
(0.176329 -0.0568046 -1.05391e-20)
(0.177821 -0.0538155 1.15449e-20)
(0.179187 -0.0500937 -8.67191e-22)
(0.180336 -0.0456644 2.05526e-21)
(0.181181 -0.0405861 1.19047e-21)
(0.181645 -0.0349496 6.7156e-22)
(0.181667 -0.0288748 3.75067e-22)
(0.18121 -0.0225031 6.54288e-19)
(0.180261 -0.0159885 -6.54308e-19)
(0.178839 -0.0094869 -4.79743e-22)
(0.176983 -0.00314503 -1.01363e-21)
(0.174755 0.00290778 2.19033e-21)
(0.172232 0.008566 0)
(0.169495 0.013751 2.31387e-21)
(0.16663 0.0184116 3.47971e-20)
(0.163716 0.0225216 -3.61987e-20)
(0.160826 0.0260771 -4.67656e-21)
(0.15802 0.0290917 0)
(0.155349 0.0315924 -4.54082e-21)
(0.152844 0.033611 0)
(0.15053 0.0351839 -6.25963e-20)
(0.148453 0.0363748 6.51321e-20)
(0.146937 0.0375447 -4.00833e-21)
(0.163016 -0.0614916 2.41582e-21)
(0.163499 -0.0620814 -2.62565e-21)
(0.16442 -0.0625168 1.50335e-22)
(0.165557 -0.0625122 -3.656e-21)
(0.166856 -0.0619714 7.63219e-21)
(0.16828 -0.0608292 -5.50111e-21)
(0.169779 -0.0590356 -9.63369e-22)
(0.17129 -0.0565494 7.64698e-23)
(0.172737 -0.053349 0)
(0.174035 -0.049438 8.9555e-22)
(0.1751 -0.0448497 6.99545e-21)
(0.175851 -0.0396481 -1.04461e-20)
(0.176216 -0.0339271 -7.13136e-22)
(0.176143 -0.0278065 2.95761e-21)
(0.175599 -0.021425 7.03908e-19)
(0.174578 -0.0149312 -7.11296e-19)
(0.173099 -0.00847378 4.53188e-21)
(0.171203 -0.00219179 1.12167e-21)
(0.16895 0.00379304 -2.11267e-20)
(0.166413 0.00938172 1.86451e-20)
(0.163672 0.0145007 -2.38953e-21)
(0.160805 0.0191022 0)
(0.157889 0.0231618 -4.84247e-21)
(0.154992 0.0266758 4.81389e-21)
(0.152174 0.0296576 -3.40078e-20)
(0.149482 0.0321324 8.09387e-20)
(0.146947 0.0341302 -3.24582e-20)
(0.144593 0.0356858 2.34393e-22)
(0.142471 0.0368633 -6.804e-20)
(0.140913 0.0380306 7.29374e-20)
(0.156907 -0.0625073 0)
(0.157451 -0.0628926 0)
(0.158449 -0.0631286 1.17094e-21)
(0.159649 -0.062906 -7.73845e-22)
(0.160991 -0.0621293 0)
(0.162432 -0.0607461 6.5267e-22)
(0.163922 -0.0587132 7.8365e-22)
(0.165397 -0.0559985 1.16356e-21)
(0.166784 -0.0525896 0)
(0.168001 -0.0484994 0)
(0.16897 -0.0437682 1.08605e-21)
(0.169616 -0.0384651 -6.13885e-21)
(0.169877 -0.0326861 7.0305e-21)
(0.169704 -0.0265498 4.16158e-22)
(0.169075 -0.0201905 7.61983e-19)
(0.167986 -0.01375 -7.62266e-19)
(0.166459 -0.00736862 -5.45063e-22)
(0.164535 -0.0011764 7.33231e-21)
(0.162272 0.00471331 -9.59907e-21)
(0.159738 0.0102087 0)
(0.157009 0.0152416 0)
(0.154158 0.0197676 0)
(0.151257 0.023764 0)
(0.148371 0.0272274 -5.42772e-21)
(0.145554 0.0301698 -5.10455e-21)
(0.142854 0.0326146 0)
(0.1403 0.0345895 -4.50508e-20)
(0.137916 0.036127 3.42673e-20)
(0.135754 0.0372911 0)
(0.134156 0.0384549 0)
(0.149841 -0.0632524 -2.45088e-22)
(0.150453 -0.0634082 0)
(0.15153 -0.0634215 0)
(0.152793 -0.0629569 0)
(0.154171 -0.0619292 0)
(0.155619 -0.0602937 0)
(0.157088 -0.0580164 -8.00355e-22)
(0.158514 -0.0550753 -5.02875e-22)
(0.159826 -0.0514681 6.34919e-21)
(0.160949 -0.0472162 5.93195e-22)
(0.16181 -0.0423671 -1.8833e-20)
(0.162342 -0.0369938 1.61482e-20)
(0.162492 -0.031193 8.48204e-22)
(0.16222 -0.0250805 -6.64696e-21)
(0.161508 -0.0187848 8.17366e-19)
(0.160359 -0.0124391 -8.17425e-19)
(0.158796 -0.00617386 -9.76911e-21)
(0.156859 -0.000109114 -6.94311e-22)
(0.154603 0.00565122 3.18742e-20)
(0.152092 0.0110231 -4.0869e-20)
(0.149395 0.0159442 2.06059e-21)
(0.146581 0.0203735 2.23542e-20)
(0.143716 0.02429 2.92829e-21)
(0.140858 0.02769 5.54336e-21)
(0.138061 0.0305841 0)
(0.135367 0.0329932 0)
(0.132806 0.0349418 0)
(0.130401 0.03646 0)
(0.128208 0.0376108 0)
(0.126572 0.0387703 -5.03287e-21)
(0.14165 -0.0636065 7.16896e-22)
(0.142338 -0.0635073 -2.8928e-21)
(0.143499 -0.0632714 3.0397e-21)
(0.144822 -0.0625462 0)
(0.146229 -0.0612548 1.52444e-21)
(0.147674 -0.0593607 -1.80214e-21)
(0.149109 -0.0568409 6.57896e-21)
(0.150471 -0.0536841 -5.49447e-21)
(0.151693 -0.0498983 0)
(0.152707 -0.0455135 -7.08838e-21)
(0.153447 -0.0405831 -6.12568e-22)
(0.153858 -0.0351829 1.59149e-20)
(0.153893 -0.0294087 -6.76812e-21)
(0.153523 -0.0233718 -3.92913e-21)
(0.152735 -0.0171927 8.76358e-19)
(0.151537 -0.0109946 -8.67387e-19)
(0.149954 -0.00489637 -4.79761e-21)
(0.148023 0.000993331 -9.71647e-21)
(0.145796 0.00658097 3.39972e-20)
(0.143332 0.011791 1.22974e-21)
(0.140692 0.0165672 -2.63853e-20)
(0.137939 0.0208723 -3.12339e-21)
(0.135133 0.0246866 -5.54918e-20)
(0.132327 0.028006 4.50322e-20)
(0.129569 0.0308392 -4.21956e-20)
(0.126901 0.0332041 4.70416e-20)
(0.124348 0.0351215 0)
(0.121934 0.0366183 -4.47568e-20)
(0.119717 0.0377553 4.33325e-20)
(0.118046 0.0389091 1.05184e-20)
(0.132123 -0.0633998 3.82444e-21)
(0.132899 -0.0630199 -4.92935e-21)
(0.134147 -0.0625121 -3.08336e-21)
(0.135526 -0.0615128 3.94986e-21)
(0.136954 -0.0599508 2.32454e-22)
(0.138384 -0.0578004 2.77758e-21)
(0.139767 -0.0550506 -5.66067e-21)
(0.141048 -0.0517016 2.25524e-21)
(0.142163 -0.0477712 0)
(0.143053 -0.0432973 7.9668e-21)
(0.143663 -0.0383381 -6.98482e-21)
(0.143944 -0.0329705 7.00892e-22)
(0.143863 -0.0272876 3.58108e-21)
(0.143399 -0.0213939 -5.6647e-21)
(0.142546 -0.0153999 9.27416e-19)
(0.141314 -0.00941678 -9.22829e-19)
(0.13973 -0.00355021 -8.03524e-21)
(0.13783 0.00210406 5.45994e-21)
(0.13566 0.00746389 -1.53356e-21)
(0.133271 0.0124629 -3.16626e-20)
(0.130719 0.0170515 2.82627e-20)
(0.128058 0.0211961 6.50211e-21)
(0.12534 0.0248785 2.95698e-20)
(0.122614 0.0280938 -7.16816e-20)
(0.119922 0.0308482 8.99493e-20)
(0.117302 0.0331562 -4.37502e-20)
(0.114776 0.0350342 -4.97069e-20)
(0.112369 0.0365052 4.8116e-20)
(0.110141 0.0376269 4.52196e-20)
(0.108439 0.0387724 -5.73724e-20)
(0.120991 -0.0623868 8.17919e-21)
(0.121867 -0.0617041 1.01514e-21)
(0.123201 -0.0609113 -2.15464e-21)
(0.124629 -0.0596317 -6.2013e-21)
(0.126065 -0.0578038 -2.61028e-22)
(0.127461 -0.0554139 5.46632e-23)
(0.128775 -0.0524637 9.78944e-23)
(0.129953 -0.0489647 0)
(0.130943 -0.0449443 0)
(0.131694 -0.0404468 7.85055e-21)
(0.132161 -0.0355336 -9.13538e-21)
(0.13231 -0.0302807 -7.05891e-22)
(0.132114 -0.0247758 0)
(0.131564 -0.0191143 -1.63136e-21)
(0.130661 -0.0133946 9.78255e-19)
(0.129418 -0.00771335 -9.73487e-19)
(0.12786 -0.00216137 -3.37821e-21)
(0.126021 0.00317992 0)
(0.123942 0.0082409 1.54448e-21)
(0.121666 0.0129652 -2.37915e-20)
(0.11924 0.0173099 2.31944e-20)
(0.116709 0.0212458 -3.3548e-21)
(0.114118 0.0247557 0)
(0.111507 0.0278337 2.26367e-22)
(0.108914 0.0304833 1.02191e-20)
(0.106372 0.0327149 -6.54716e-21)
(0.103901 0.0345401 5.31808e-20)
(0.101523 0.0359769 -3.64005e-23)
(0.0993005 0.0370791 5.25887e-21)
(0.0975769 0.0382113 -4.36043e-20)
(0.1079 -0.0601978 -1.02592e-20)
(0.108883 -0.0592065 8.88893e-21)
(0.110294 -0.0581264 0)
(0.111755 -0.0565774 -5.82243e-21)
(0.113176 -0.0545092 7.04432e-21)
(0.114514 -0.0519212 -5.3702e-22)
(0.115732 -0.0488276 -7.03134e-22)
(0.116784 -0.0452508 1.07023e-21)
(0.117628 -0.041226 0)
(0.118223 -0.0368025 0)
(0.11854 -0.0320423 -5.59227e-21)
(0.118553 -0.0270178 5.84121e-21)
(0.118251 -0.0218087 0)
(0.11763 -0.0164984 -5.08806e-22)
(0.116699 -0.0111706 1.02153e-18)
(0.115474 -0.00590517 -1.02157e-18)
(0.113979 -0.000776183 7.13392e-22)
(0.112243 0.00415074 0)
(0.110299 0.00881956 1.2017e-20)
(0.108183 0.0131845 -1.17141e-20)
(0.105932 0.0172102 0)
(0.103581 0.0208713 0)
(0.101165 0.0241521 3.36931e-20)
(0.0987169 0.0270452 -6.23647e-20)
(0.0962687 0.029551 2.53482e-20)
(0.0938465 0.0316755 -5.42335e-20)
(0.0914685 0.0334249 5.97676e-20)
(0.0891547 0.0348117 0)
(0.0869658 0.0358843 -5.82359e-20)
(0.085237 0.0369922 4.62337e-20)
(0.0923546 -0.0562521 -1.27093e-20)
(0.0934376 -0.0549709 1.23413e-20)
(0.0949006 -0.0536296 -1.15387e-20)
(0.0963614 -0.0518561 2.22595e-21)
(0.0977316 -0.0496128 2.74484e-21)
(0.0989748 -0.0469115 8.48476e-21)
(0.100061 -0.0437779 -1.58579e-21)
(0.100957 -0.0402433 2.17713e-22)
(0.101631 -0.0363489 -4.74776e-21)
(0.102057 -0.032146 1.21247e-20)
(0.102217 -0.0276943 -7.40625e-21)
(0.102101 -0.0230592 -7.04843e-21)
(0.101707 -0.0183092 1.02918e-20)
(0.101042 -0.0135126 -6.17675e-21)
(0.100119 -0.00873518 1.06256e-18)
(0.0989547 -0.00403834 -1.05729e-18)
(0.0975719 0.000522654 -9.24426e-21)
(0.095994 0.00489927 1.99328e-20)
(0.094246 0.00904999 -1.17643e-20)
(0.0923533 0.0129403 -2.98665e-20)
(0.0903416 0.0165427 6.0213e-20)
(0.0882359 0.0198361 -3.0106e-20)
(0.0860613 0.0228058 -3.75406e-21)
(0.0838421 0.0254431 3.15202e-20)