/*--------------------------------*- C++ -*----------------------------------*\
  =========                 |
  \\      /  F ield         | OpenFOAM: The Open Source CFD Toolbox
   \\    /   O peration     | Website:  https://openfoam.org
    \\  /    A nd           | Version:  12
     \\/     M anipulation  |
\*---------------------------------------------------------------------------*/
FoamFile
{
    format      ascii;
    class       volSymmTensorField;
    location    "80";
    object      UPrime2Mean;
}
// * * * * * * * * * * * * * * * * * * * * * * * * * * * * * * * * * * * * * //

dimensions      [0 2 -2 0 0 0 0];

internalField   nonuniform List<symmTensor> 
6750
(
(4.53863e-10 9.58851e-09 0 3.21171e-07 0 0)
(1.03599e-08 1.66433e-07 0 4.24882e-06 0 0)
(3.35475e-08 5.36594e-07 0 1.30583e-05 0 0)
(6.19629e-08 1.05626e-06 0 2.64302e-05 0 0)
(1.55812e-07 2.30063e-06 0 4.36708e-05 0 0)
(7.7263e-11 1.31225e-09 0 2.54065e-07 0 0)
(1.98078e-09 7.49936e-08 0 3.6965e-06 0 0)
(1.381e-08 3.51391e-07 0 1.1524e-05 0 0)
(4.89921e-08 9.5693e-07 0 2.31994e-05 0 0)
(1.34064e-07 2.05868e-06 0 3.77631e-05 0 0)
(6.33555e-11 1.41368e-09 0 2.32154e-07 0 0)
(2.15958e-09 8.24853e-08 0 3.41211e-06 0 0)
(1.77431e-08 4.16521e-07 0 1.05222e-05 0 0)
(6.75699e-08 1.13927e-06 0 2.07617e-05 0 0)
(1.7287e-07 2.28936e-06 0 3.28936e-05 0 0)
(5.28407e-11 1.29071e-09 0 2.03477e-07 0 0)
(3.59098e-09 1.02496e-07 0 3.04196e-06 0 0)
(2.79029e-08 5.03116e-07 0 9.31426e-06 0 0)
(9.78154e-08 1.31253e-06 0 1.81606e-05 0 0)
(2.28265e-07 2.50095e-06 0 2.84141e-05 0 0)
(3.79107e-11 9.85847e-10 0 1.71073e-07 0 0)
(5.10266e-09 1.1446e-07 0 2.62331e-06 0 0)
(3.91453e-08 5.57334e-07 0 8.02851e-06 0 0)
(1.31093e-07 1.41973e-06 0 1.55762e-05 0 0)
(2.91739e-07 2.63902e-06 0 2.42472e-05 0 0)
(2.15251e-11 5.39406e-10 0 1.3905e-07 0 0)
(6.31317e-09 1.17033e-07 0 2.19407e-06 0 0)
(4.97535e-08 5.77546e-07 0 6.73847e-06 0 0)
(1.64948e-07 1.46397e-06 0 1.30597e-05 0 0)
(3.61955e-07 2.70243e-06 0 2.02957e-05 0 0)
(1.0926e-11 8.65356e-11 0 1.09599e-07 0 0)
(7.252e-09 1.13256e-07 0 1.77805e-06 0 0)
(5.98107e-08 5.72471e-07 0 5.48937e-06 0 0)
(1.9988e-07 1.45774e-06 0 1.0648e-05 0 0)
(4.39662e-07 2.69495e-06 0 1.65454e-05 0 0)
(1.0344e-11 -2.77289e-10 0 8.35997e-08 0 0)
(8.04672e-09 1.05611e-07 0 1.39013e-06 0 0)
(6.96867e-08 5.48215e-07 0 4.31549e-06 0 0)
(2.36252e-07 1.40715e-06 0 8.38427e-06 0 0)
(5.24233e-07 2.6137e-06 0 1.30345e-05 0 0)
(2.03649e-11 -5.17071e-10 0 6.12882e-08 0 0)
(8.77984e-09 9.54083e-08 0 1.04051e-06 0 0)
(7.94387e-08 5.07642e-07 0 3.24674e-06 0 0)
(2.73325e-07 1.31384e-06 0 6.319e-06 0 0)
(6.12642e-07 2.45356e-06 0 9.83073e-06 0 0)
(3.88342e-11 -6.3379e-10 0 4.26573e-08 0 0)
(9.47355e-09 8.32693e-08 0 7.3668e-07 0 0)
(8.88e-08 4.52391e-07 0 2.30899e-06 0 0)
(3.09432e-07 1.17931e-06 0 4.50129e-06 0 0)
(7.00021e-07 2.21327e-06 0 7.00787e-06 0 0)
(6.19301e-11 -6.45112e-10 0 2.76239e-08 0 0)
(1.01095e-08 6.95743e-08 0 4.83866e-07 0 0)
(9.73276e-08 3.84324e-07 0 1.52252e-06 0 0)
(3.42458e-07 1.00757e-06 0 2.9724e-06 0 0)
(7.80633e-07 1.89869e-06 0 4.63058e-06 0 0)
(8.53821e-11 -5.74161e-10 0 1.60665e-08 0 0)
(1.06456e-08 5.4678e-08 0 2.84966e-07 0 0)
(1.0453e-07 3.06007e-07 0 8.9996e-07 0 0)
(3.70378e-07 8.05654e-07 0 1.75924e-06 0 0)
(8.49167e-07 1.52297e-06 0 2.74213e-06 0 0)
(1.04774e-10 -4.41147e-10 0 7.81525e-09 0 0)
(1.10246e-08 3.89932e-08 0 1.40449e-07 0 0)
(1.09978e-07 2.20691e-07 0 4.45417e-07 0 0)
(3.91618e-07 5.82872e-07 0 8.71715e-07 0 0)
(9.01659e-07 1.10438e-06 0 1.35931e-06 0 0)
(1.1305e-10 -2.58168e-10 0 2.63963e-09 0 0)
(1.11587e-08 2.3007e-08 0 4.84596e-08 0 0)
(1.13378e-07 1.3199e-07 0 1.54676e-07 0 0)
(4.0529e-07 3.49497e-07 0 3.03035e-07 0 0)
(9.35985e-07 6.63326e-07 0 4.72698e-07 0 0)
(9.7144e-11 -6.83256e-11 0 2.83725e-10 0 0)
(1.08416e-08 7.29908e-09 0 5.05338e-09 0 0)
(1.14656e-07 4.33861e-08 0 1.65455e-08 0 0)
(4.11417e-07 1.15419e-07 0 3.25704e-08 0 0)
(9.521e-07 2.1953e-07 0 5.09088e-08 0 0)
(9.70944e-11 5.01515e-11 0 3.5965e-10 0 0)
(1.08438e-08 -7.54112e-09 0 5.35706e-09 0 0)
(1.14652e-07 -4.40734e-08 0 1.70647e-08 0 0)
(4.11406e-07 -1.16459e-07 0 3.31768e-08 0 0)
(9.52067e-07 -2.20737e-07 0 5.1513e-08 0 0)
(1.12684e-10 2.43721e-10 0 2.86878e-09 0 0)
(1.11539e-08 -2.32485e-08 0 4.93964e-08 0 0)
(1.13362e-07 -1.32667e-07 0 1.56257e-07 0 0)
(4.05247e-07 -3.50512e-07 0 3.04873e-07 0 0)
(9.3588e-07 -6.64486e-07 0 4.74524e-07 0 0)
(1.0413e-10 4.30273e-10 0 8.19905e-09 0 0)
(1.10149e-08 -3.92202e-08 0 1.42034e-07 0 0)
(1.09949e-07 -2.21336e-07 0 4.48083e-07 0 0)
(3.91545e-07 -5.83828e-07 0 8.74801e-07 0 0)
(9.01482e-07 -1.10544e-06 0 1.36235e-06 0 0)
(8.46226e-11 5.68067e-10 0 1.65963e-08 0 0)
(1.06324e-08 -5.48798e-08 0 2.87201e-07 0 0)
(1.04491e-07 -3.06599e-07 0 9.03707e-07 0 0)
(3.70283e-07 -8.0652e-07 0 1.76356e-06 0 0)
(8.4893e-07 -1.52387e-06 0 2.74635e-06 0 0)
(6.12297e-11 6.44921e-10 0 2.8284e-08 0 0)
(1.00948e-08 -6.97439e-08 0 4.86736e-07 0 0)
(9.72856e-08 -3.84851e-07 0 1.52732e-06 0 0)
(3.42352e-07 -1.00832e-06 0 2.97787e-06 0 0)
(7.80347e-07 -1.89938e-06 0 4.63586e-06 0 0)
(3.83912e-11 6.39856e-10 0 4.34261e-08 0 0)
(9.45937e-09 -8.34021e-08 0 7.40162e-07 0 0)
(8.87598e-08 -4.52847e-07 0 2.31482e-06 0 0)
(3.09325e-07 -1.17994e-06 0 4.50786e-06 0 0)
(6.99688e-07 -2.2137e-06 0 7.01408e-06 0 0)
(2.03721e-11 5.29279e-10 0 6.21387e-08 0 0)
(8.76607e-09 -9.54925e-08 0 1.04456e-06 0 0)
(7.93946e-08 -5.07992e-07 0 3.25352e-06 0 0)
(2.73214e-07 -1.31429e-06 0 6.32645e-06 0 0)
(6.1229e-07 -2.45367e-06 0 9.8374e-06 0 0)
(1.0914e-11 2.95452e-10 0 8.44984e-08 0 0)
(8.03071e-09 -1.05617e-07 0 1.39466e-06 0 0)
(6.96221e-08 -5.48366e-07 0 4.32312e-06 0 0)
(2.36101e-07 -1.40729e-06 0 8.39244e-06 0 0)
(5.23866e-07 -2.61348e-06 0 1.30413e-05 0 0)
(1.20249e-11 -6.41013e-11 0 1.10508e-07 0 0)
(7.23534e-09 -1.1318e-07 0 1.78292e-06 0 0)
(5.97354e-08 -5.72418e-07 0 5.49773e-06 0 0)
(1.99729e-07 -1.45769e-06 0 1.06573e-05 0 0)
(4.39308e-07 -2.69461e-06 0 1.65542e-05 0 0)
(2.30392e-11 -5.16399e-10 0 1.39938e-07 0 0)
(6.30032e-09 -1.16911e-07 0 2.19916e-06 0 0)
(4.96955e-08 -5.77422e-07 0 6.74746e-06 0 0)
(1.64858e-07 -1.46399e-06 0 1.30702e-05 0 0)
(3.6168e-07 -2.70218e-06 0 2.03063e-05 0 0)
(3.96252e-11 -9.64205e-10 0 1.71921e-07 0 0)
(5.09319e-09 -1.143e-07 0 2.62854e-06 0 0)
(3.91008e-08 -5.57148e-07 0 8.03822e-06 0 0)
(1.31028e-07 -1.41973e-06 0 1.55882e-05 0 0)
(2.91489e-07 -2.63872e-06 0 2.42605e-05 0 0)
(5.44588e-11 -1.27271e-09 0 2.04273e-07 0 0)
(3.58458e-09 -1.02318e-07 0 3.04724e-06 0 0)
(2.78712e-08 -5.02903e-07 0 9.32457e-06 0 0)
(9.77742e-08 -1.31262e-06 0 1.81746e-05 0 0)
(2.28035e-07 -2.50052e-06 0 2.84307e-05 0 0)
(6.44794e-11 -1.39984e-09 0 2.32893e-07 0 0)
(2.15378e-09 -8.22939e-08 0 3.41733e-06 0 0)
(1.77173e-08 -4.16283e-07 0 1.0533e-05 0 0)
(6.75214e-08 -1.13923e-06 0 2.07776e-05 0 0)
(1.7264e-07 -2.28836e-06 0 3.29141e-05 0 0)
(7.76753e-11 -1.30506e-09 0 2.54733e-07 0 0)
(1.97301e-09 -7.48055e-08 0 3.70153e-06 0 0)
(1.37835e-08 -3.51115e-07 0 1.1535e-05 0 0)
(4.89351e-08 -9.56705e-07 0 2.3217e-05 0 0)
(1.33872e-07 -2.05675e-06 0 3.77876e-05 0 0)
(4.52722e-10 -9.57123e-09 0 3.21692e-07 0 0)
(1.0343e-08 -1.66144e-07 0 4.25307e-06 0 0)
(3.35096e-08 -5.35952e-07 0 1.30684e-05 0 0)
(6.19048e-08 -1.05495e-06 0 2.64474e-05 0 0)
(1.55649e-07 -2.29668e-06 0 4.36962e-05 0 0)
(1.88134e-06 1.32108e-05 0 0.00010067 0 0)
(4.40782e-06 2.39772e-05 0 0.000138397 0 0)
(7.67201e-06 3.60631e-05 0 0.000178108 0 0)
(1.10466e-05 4.79343e-05 -2.22345e-25 0.00021767 5.95197e-25 3.20888e-42)
(1.44236e-05 5.93001e-05 0 0.00025461 0 0)
(1.77155e-05 6.98154e-05 0 0.000287008 0 0)
(2.08085e-05 7.90609e-05 2.88204e-23 0.000313238 7.47477e-24 1.2219e-38)
(2.36094e-05 8.66559e-05 -3.27068e-23 0.000331787 -1.71205e-23 1.24363e-38)
(2.60667e-05 9.2349e-05 -2.9299e-25 0.000341397 -2.55296e-25 6.92429e-43)
(2.83183e-05 9.63314e-05 -2.17543e-23 0.000342041 -2.60636e-23 2.58438e-39)
(3.02123e-05 9.80024e-05 -2.15945e-25 0.000331623 -1.50099e-24 5.90574e-42)
(3.18783e-05 9.75053e-05 -5.10195e-26 0.000310502 -9.13517e-25 6.96053e-42)
(3.33599e-05 9.49982e-05 1.4035e-23 0.000280371 2.25221e-23 6.08483e-40)
(3.47397e-05 9.0653e-05 1.47395e-23 0.000243271 2.56955e-23 4.84349e-40)
(3.60974e-05 8.46485e-05 3.5764e-23 0.000201978 6.62173e-23 2.09587e-39)
(3.75098e-05 7.71407e-05 -3.71327e-23 0.000159696 -7.27516e-23 2.09602e-39)
(3.90588e-05 6.82525e-05 1.50888e-23 0.000119655 3.08556e-23 2.67271e-40)
(4.08263e-05 5.80694e-05 1.39659e-23 8.46898e-05 2.96895e-23 1.79914e-40)
(4.28995e-05 4.66824e-05 -1.24393e-24 5.69543e-05 -2.64858e-24 7.29181e-42)
(4.53846e-05 3.42127e-05 -1.30714e-24 3.76696e-05 -2.55871e-24 6.28322e-42)
(4.83331e-05 2.07682e-05 -2.71406e-23 2.70276e-05 -6.10072e-23 6.13203e-40)
(5.1724e-05 6.58755e-06 4.10429e-25 2.44926e-05 8.7507e-25 1.16918e-43)
(5.55152e-05 -7.99269e-06 -4.65827e-23 2.88579e-05 -1.00418e-22 1.42446e-39)
(5.96164e-05 -2.25766e-05 4.708e-23 3.84735e-05 9.24246e-23 1.39935e-39)
(6.38805e-05 -3.67294e-05 0 5.15089e-05 0 0)
(6.81212e-05 -5.00108e-05 0 6.61578e-05 0 0)
(7.21323e-05 -6.2011e-05 7.27155e-25 8.08086e-05 8.12796e-25 2.02746e-43)
(7.57285e-05 -7.23555e-05 0 9.41345e-05 0 0)
(7.88267e-05 -8.06869e-05 0 0.000105086 0 0)
(8.11071e-05 -8.67255e-05 0 0.000112755 0 0)
(2.95074e-06 1.81363e-05 0 0.000119604 0 0)
(5.7653e-06 2.94922e-05 0 0.00015941 0 0)
(8.92433e-06 4.09894e-05 0 0.000197615 0 0)
(1.21621e-05 5.21251e-05 2.16824e-25 0.000233831 -5.8639e-25 2.85328e-42)
(1.54474e-05 6.27809e-05 0 0.000266659 0 0)
(1.86742e-05 7.25915e-05 0 0.000294722 0 0)
(2.17406e-05 8.11811e-05 -2.69397e-23 0.000316672 -1.55113e-24 1.05398e-38)
(2.45635e-05 8.82143e-05 3.12009e-23 0.000331242 1.01572e-23 1.10398e-38)
(2.7161e-05 9.36084e-05 2.83235e-25 0.000337621 2.08609e-25 6.1004e-43)
(2.95696e-05 9.7352e-05 0 0.000335647 0 0)
(3.17228e-05 9.89949e-05 0 0.000323448 0 0)
(3.37236e-05 9.8708e-05 2.45069e-23 0.000301954 3.19445e-23 1.85456e-39)
(3.55731e-05 9.65486e-05 -2.64766e-23 0.000272605 -3.76628e-23 1.86624e-39)
(3.73301e-05 9.26409e-05 0 0.000237261 0 0)
(3.90381e-05 8.71015e-05 1.01261e-22 0.000198355 1.72451e-22 1.54979e-38)
(4.07383e-05 8.00364e-05 -1.05414e-22 0.000158638 -1.91642e-22 1.54862e-38)
(4.24826e-05 7.1543e-05 0 0.00012087 0 0)
(4.43354e-05 6.17138e-05 -2.97931e-23 8.75129e-05 -5.93038e-23 7.97241e-40)
(4.63734e-05 5.06518e-05 3.02538e-23 6.04648e-05 6.23671e-23 8.0517e-40)
(4.86718e-05 3.84819e-05 0 4.08859e-05 0 0)
(5.13037e-05 2.53532e-05 0 2.91174e-05 0 0)
(5.4305e-05 1.15046e-05 -4.06871e-25 2.4849e-05 -8.47266e-25 1.02913e-43)
(5.76499e-05 -2.76378e-06 5.03914e-23 2.71773e-05 9.65217e-23 1.30104e-39)
(6.12776e-05 -1.70991e-05 -5.14662e-23 3.47737e-05 -9.04795e-23 1.32348e-39)
(6.50848e-05 -3.11156e-05 0 4.60869e-05 0 0)
(6.89259e-05 -4.44225e-05 0 5.95216e-05 0 0)
(7.2626e-05 -5.66541e-05 -6.913e-25 7.35924e-05 -8.6757e-25 1.79999e-43)
(7.60074e-05 -6.74856e-05 0 8.7024e-05 0 0)
(7.89966e-05 -7.66288e-05 0 9.87943e-05 0 0)
(8.14238e-05 -8.3994e-05 0 0.000108302 0 0)
(4.11335e-06 2.27824e-05 0 0.000134254 0 0)
(6.84277e-06 3.34059e-05 0 0.000171836 0 0)
(9.93812e-06 4.43214e-05 0 0.000207294 0 0)
(1.32066e-05 5.51143e-05 -1.48622e-23 0.000240705 3.5434e-23 1.15457e-38)
(1.65585e-05 6.54803e-05 1.81054e-23 0.000270753 -2.91188e-23 1.18195e-38)
(1.98871e-05 7.50351e-05 -2.36917e-23 0.000296082 1.58797e-23 1.17582e-38)
(2.31206e-05 8.34563e-05 2.78294e-23 0.000315412 -8.32637e-24 1.19805e-38)
(2.61886e-05 9.04349e-05 -5.36019e-25 0.000327594 -1.33412e-25 2.76065e-42)
(2.91816e-05 9.60256e-05 0 0.000332157 0 0)
(3.20255e-05 9.99809e-05 0 0.000328633 0 0)
(3.47545e-05 0.000102031 7.69256e-25 0.000315607 6.36986e-25 2.23394e-42)
(3.74009e-05 0.000102256 0 0.000294203 0 0)
(3.99417e-05 0.000100645 0 0.000265691 0 0)
(4.23943e-05 9.72566e-05 2.53182e-25 0.000231811 3.30236e-25 1.04226e-43)
(4.47514e-05 9.21406e-05 1.92012e-22 0.00019477 2.77962e-22 4.42137e-38)
(4.70062e-05 8.53563e-05 -2.00624e-22 0.000157028 -3.11238e-22 4.4213e-38)
(4.91675e-05 7.69778e-05 -2.82722e-25 0.000121041 -4.6724e-25 7.05073e-44)
(5.12695e-05 6.71028e-05 0 8.90058e-05 0 0)
(5.3377e-05 5.58633e-05 0 6.26445e-05 0 0)
(5.5576e-05 4.3433e-05 -1.09995e-24 4.30619e-05 -1.99497e-24 7.04723e-43)
(5.79496e-05 3.0033e-05 0 3.07023e-05 0 0)
(6.05541e-05 1.59208e-05 0 2.5363e-05 0 0)
(6.34101e-05 1.41046e-06 9.65592e-25 2.63189e-05 1.66619e-24 4.01956e-43)
(6.64984e-05 -1.31441e-05 5.98899e-23 3.2454e-05 9.43484e-23 1.32594e-39)
(6.97545e-05 -2.73747e-05 -5.98053e-23 4.24142e-05 -8.49338e-23 1.30135e-39)
(7.30733e-05 -4.09177e-05 5.79833e-23 5.4767e-05 7.25405e-23 1.03248e-39)
(7.63223e-05 -5.34353e-05 -5.85523e-23 6.81356e-05 -6.09519e-23 1.0057e-39)
(7.93509e-05 -6.46279e-05 0 8.129e-05 0 0)
(8.20283e-05 -7.42303e-05 0 9.32248e-05 0 0)
(8.38519e-05 -8.22172e-05 0 0.000103689 0 0)
(5.27722e-06 2.71745e-05 0 0.000147784 0 0)
(7.95679e-06 3.7275e-05 1.58595e-23 0.000183253 -1.13058e-22 5.38933e-38)
(1.11299e-05 4.79698e-05 -1.03005e-23 0.000216325 5.47764e-23 1.42597e-38)
(1.4539e-05 5.86257e-05 -3.02476e-23 0.000247116 8.66957e-23 5.58261e-38)
(1.80692e-05 6.8857e-05 3.93093e-23 0.000274384 -6.77684e-23 5.49569e-38)
(2.16478e-05 7.83391e-05 -2.40651e-23 0.000296896 2.50314e-23 1.33222e-38)
(2.52324e-05 8.67996e-05 0 0.000313519 0 0)
(2.87672e-05 9.39539e-05 -1.10385e-24 0.000323274 1.39311e-25 1.17022e-41)
(3.23806e-05 9.99221e-05 0 0.000326007 0 0)
(3.59466e-05 0.000104295 0 0.000320888 0 0)
(3.95471e-05 0.000106918 -3.07592e-23 0.000307128 -2.14057e-23 2.70001e-39)
(4.31443e-05 0.000107764 3.2505e-23 0.000285852 2.5993e-23 2.40705e-39)
(4.66941e-05 0.000106781 0 0.000258228 0 0)
(5.0156e-05 0.000103953 -3.07698e-25 0.000225867 -3.38537e-25 1.14881e-43)
(5.34587e-05 9.92668e-05 3.09927e-22 0.000190753 3.76188e-22 8.8932e-38)
(5.65324e-05 9.27362e-05 -3.24971e-22 0.000155063 -4.23874e-22 8.89297e-38)
(5.93318e-05 8.44116e-05 3.44049e-25 0.000120957 4.82042e-25 7.77146e-44)
(6.18545e-05 7.43934e-05 0 9.03719e-05 0 0)
(6.41495e-05 6.28406e-05 4.31762e-23 6.48539e-05 6.60336e-23 8.78211e-40)
(6.63098e-05 4.99708e-05 -4.03011e-23 4.54379e-05 -6.35726e-23 7.68728e-40)
(6.84432e-05 3.60502e-05 -1.29958e-24 3.25969e-05 -2.03656e-24 6.7613e-43)
(7.06426e-05 2.13878e-05 0 2.62592e-05 0 0)
(7.29742e-05 6.33122e-06 2.42101e-24 2.58807e-05 3.57003e-24 1.93951e-42)
(7.54641e-05 -8.75116e-06 0 3.05456e-05 0 0)
(7.80894e-05 -2.34906e-05 -6.95827e-23 3.9095e-05 -8.94421e-23 1.30579e-39)
(8.07829e-05 -3.75348e-05 1.33906e-22 5.02611e-05 1.52829e-22 4.64182e-39)
(8.34547e-05 -5.05636e-05 -1.29587e-22 6.27852e-05 -1.26738e-22 3.99478e-39)
(8.6003e-05 -6.22963e-05 -6.11942e-23 7.54968e-05 -4.98416e-23 7.54932e-40)
(8.82636e-05 -7.24825e-05 1.26837e-22 8.74103e-05 7.80155e-23 3.2942e-39)
(8.91554e-05 -8.11492e-05 0 9.86176e-05 0 0)
(6.58364e-06 3.17724e-05 0 0.000160777 0 0)
(9.35095e-06 4.16746e-05 -1.45646e-23 0.000194025 1.24453e-22 6.20065e-38)
(1.27098e-05 5.22942e-05 2.04819e-23 0.000224528 -1.12383e-22 5.99354e-38)
(1.63566e-05 6.28856e-05 0 0.000252464 0 0)
(2.01956e-05 7.30889e-05 0 0.000276745 0 0)
(2.41932e-05 8.26399e-05 -7.8748e-25 0.000296277 1.03909e-24 1.36595e-41)
(2.83279e-05 9.12874e-05 0 0.000310095 0 0)
(3.25642e-05 9.87736e-05 1.29961e-24 0.000317411 -1.88442e-25 1.28528e-41)
(3.70511e-05 0.000105223 -2.46605e-23 0.000318249 -2.61558e-24 2.98818e-39)
(4.164e-05 0.000110124 2.89608e-23 0.000311571 7.59277e-24 3.03135e-39)
(4.64259e-05 0.000113391 3.49006e-23 0.0002972 1.76339e-23 2.76315e-39)
(5.13112e-05 0.000114908 -3.83154e-23 0.00027617 -2.31123e-23 2.6194e-39)
(5.62181e-05 0.000114582 -1.31744e-24 0.000249582 -9.83558e-25 2.21772e-42)
(6.10332e-05 0.000112331 7.18882e-25 0.000218909 6.28927e-25 5.00355e-43)
(6.56054e-05 0.000108086 4.61997e-22 0.00018591 4.64911e-22 1.5082e-37)
(6.97861e-05 0.000101815 -4.85663e-22 0.000152478 -5.28311e-22 1.50815e-37)
(7.34623e-05 9.35453e-05 -8.26332e-25 0.00012047 -9.76606e-25 3.46665e-43)
(7.65859e-05 8.33719e-05 1.66911e-24 9.156e-05 2.09544e-24 1.20561e-42)
(7.91872e-05 7.14704e-05 -5.26856e-23 6.71027e-05 -6.88799e-23 9.85562e-40)
(8.13667e-05 5.80909e-05 5.07538e-23 4.8046e-05 6.88112e-23 9.18473e-40)
(8.32643e-05 4.35426e-05 5.1626e-23 3.48794e-05 6.99751e-23 7.64125e-40)
(8.50235e-05 2.81811e-05 -4.90898e-23 2.76398e-05 -6.67287e-23 7.07027e-40)
(8.6765e-05 1.2392e-05 -2.88452e-24 2.59524e-05 -3.82432e-24 2.13016e-42)
(8.85675e-05 -3.43085e-06 0 2.91012e-05 0 0)
(9.04559e-05 -1.89051e-05 2.71926e-24 3.6128e-05 3.07734e-24 1.60031e-42)
(9.24022e-05 -3.36755e-05 0 4.59415e-05 0 0)
(9.43564e-05 -4.74261e-05 0 5.74169e-05 0 0)
(9.62687e-05 -5.98829e-05 1.49705e-22 6.94683e-05 1.14315e-22 3.8645e-39)
(9.79709e-05 -7.08081e-05 -1.43934e-22 8.11378e-05 -8.70626e-23 3.53023e-39)
(9.7682e-05 -8.03527e-05 0 9.28669e-05 0 0)
(8.19226e-06 3.68634e-05 -1.08234e-23 0.000172817 1.39627e-22 6.11278e-38)
(1.11972e-05 4.67891e-05 1.85327e-23 0.000203419 -2.00455e-22 1.50546e-37)
(1.4855e-05 5.74134e-05 -9.7637e-24 0.000231078 6.1454e-23 1.62207e-38)
(1.88704e-05 6.80224e-05 0 0.000255963 0 0)
(2.31842e-05 7.83077e-05 -2.14663e-23 0.000277135 4.56484e-23 1.52307e-38)
(2.77974e-05 8.80383e-05 2.7371e-23 0.000293628 -3.88472e-23 1.46543e-38)
(3.27044e-05 9.69673e-05 -3.59768e-23 0.000304631 2.6467e-23 1.34326e-38)
(3.79173e-05 0.000104896 4.58012e-23 0.000309575 -2.07014e-23 1.46062e-38)
(4.35598e-05 0.000111858 0 0.000308514 0 0)
(4.95071e-05 0.00011733 2.07065e-24 0.00030042 1.47605e-25 1.23524e-41)
(5.58294e-05 0.000121251 -3.96328e-23 0.000285611 -1.31631e-23 2.82925e-39)
(6.23808e-05 0.00012344 2.24968e-23 0.000264999 8.54749e-24 7.82388e-40)
(6.90301e-05 0.000123762 3.13893e-24 0.000239624 7.8407e-25 1.95245e-41)
(7.55757e-05 0.000122081 2.67442e-23 0.00021082 1.85743e-23 5.58699e-40)
(8.17696e-05 0.00011828 6.50998e-22 0.000180123 5.41991e-22 2.31415e-37)
(8.73667e-05 0.000112288 -6.85399e-22 0.000149144 -6.22881e-22 2.31391e-37)
(9.21728e-05 0.000104102 3.2741e-23 0.000119445 3.28862e-23 3.90913e-40)
(9.60847e-05 9.3808e-05 -4.30251e-24 9.24342e-05 -4.62934e-24 1.29383e-41)
(9.91108e-05 8.15843e-05 3.16048e-23 6.92697e-05 3.53068e-23 2.37296e-40)
(0.000101362 6.7701e-05 -6.34792e-23 5.07969e-05 -7.44074e-23 1.08919e-39)
(0.000103018 5.25006e-05 -3.86559e-24 3.7504e-05 -4.56032e-24 3.41638e-42)
(0.000104282 3.63772e-05 0 2.95141e-05 0 0)
(0.000105341 1.97528e-05 1.1288e-22 2.66031e-05 1.29892e-22 2.35033e-39)
(0.000106339 3.05196e-06 -1.13225e-22 2.82443e-05 -1.26398e-22 2.44702e-39)
(0.000107356 -1.33202e-05 1.06258e-22 3.36781e-05 1.09913e-22 1.83102e-39)
(0.000108411 -2.89951e-05 -1.0011e-22 4.19951e-05 -9.55209e-23 1.67542e-39)
(0.000109494 -4.36468e-05 -6.03324e-24 5.22184e-05 -4.94145e-24 5.35828e-42)
(0.000110606 -5.69948e-05 -8.96136e-23 6.33668e-05 -6.48342e-23 1.09796e-39)
(0.000111592 -6.88045e-05 2.58806e-22 7.45312e-05 1.49272e-22 8.6077e-39)
(0.000109877 -7.94444e-05 -1.79938e-22 8.64597e-05 -7.61884e-23 4.10211e-39)
(1.02739e-05 4.26312e-05 3.56775e-24 0.00018336 -7.30332e-23 1.55011e-38)
(1.36837e-05 5.27426e-05 -5.17782e-24 0.000210911 7.65872e-23 1.979e-38)
(1.77841e-05 6.34508e-05 -1.02482e-23 0.000235524 7.11577e-23 1.91756e-38)
(2.23369e-05 7.41608e-05 1.6148e-23 0.000257243 -6.78546e-23 1.96951e-38)
(2.73266e-05 8.46116e-05 -2.30152e-23 0.000275234 5.53142e-23 1.64965e-38)
(3.27849e-05 9.45868e-05 3.3208e-23 0.000288674 -5.39301e-23 1.90702e-38)
(3.87207e-05 0.000103835 1.18071e-24 0.000296892 -1.59712e-24 1.5471e-41)
(4.52375e-05 0.000112265 0 0.000299581 0 0)
(5.2354e-05 0.000119701 -3.26774e-23 0.000296656 7.70677e-24 3.53685e-39)
(6.00388e-05 0.000125734 -2.77105e-24 0.000287366 -2.61137e-24 2.28857e-42)
(6.82912e-05 0.000130267 -3.10485e-24 0.000272316 -3.13922e-24 1.70218e-42)
(7.69266e-05 0.000133086 5.42882e-23 0.000252314 1.54441e-23 3.31999e-39)
(8.57379e-05 0.00013402 2.77307e-23 0.00022834 1.30464e-23 5.67994e-40)
(9.44185e-05 0.000132889 -4.85941e-23 0.000201585 -2.74007e-23 1.41591e-39)
(0.000102606 0.000129538 8.92129e-22 0.000173364 6.15601e-22 3.45018e-37)
(0.000109941 0.00012386 -9.03412e-22 0.000145014 -6.90106e-22 3.18695e-37)
(0.000116137 0.000115822 -5.6606e-23 0.000117815 -4.85079e-23 9.52918e-40)
(0.000121026 0.000105488 4.32425e-23 9.29141e-05 3.9977e-23 5.06726e-40)
(0.000124592 9.30285e-05 7.64132e-23 7.12717e-05 7.46895e-23 1.22298e-39)
(0.00012696 7.87184e-05 4.10376e-24 5.36192e-05 3.38715e-24 1.19449e-42)
(0.000128358 6.29188e-05 3.84899e-24 4.04239e-05 3.01375e-24 1.1228e-42)
(0.000129058 4.60517e-05 -7.19399e-23 3.18721e-05 -7.58244e-23 8.90043e-40)
(0.000129325 2.85705e-05 0 2.78696e-05 0 0)
(0.00012938 1.09311e-05 -4.26898e-24 2.80628e-05 -4.09839e-24 2.45803e-42)
(0.000129371 -6.43449e-06 1.16772e-22 3.18817e-05 1.09414e-22 1.70298e-39)
(0.000129369 -2.31365e-05 -1.20574e-22 3.85972e-05 -1.05815e-22 1.89628e-39)
(0.00012941 -3.8831e-05 1.12325e-22 4.73946e-05 8.86287e-23 1.43252e-39)
(0.000129551 -5.32135e-05 -1.02519e-22 5.74066e-05 -7.10309e-23 1.22983e-39)
(0.000129655 -6.60443e-05 -9.88639e-23 6.77969e-05 -5.48653e-23 9.51334e-40)
(0.000126273 -7.80103e-05 1.09737e-22 7.9546e-05 4.73653e-23 1.22424e-39)
(1.30398e-05 4.92219e-05 0 0.000191914 0 0)
(1.70495e-05 5.9634e-05 -3.46803e-24 0.00021611 7.45652e-23 1.61948e-38)
(2.1769e-05 7.04869e-05 1.01031e-23 0.00023755 -8.75388e-23 2.4063e-38)
(2.70653e-05 8.13543e-05 -1.73069e-23 0.00025603 7.67327e-23 2.05754e-38)
(3.29699e-05 9.20094e-05 2.44341e-23 0.000270808 -6.99026e-23 1.87198e-38)
(3.95447e-05 0.000102243 -3.30533e-23 0.000281213 5.67474e-23 1.53318e-38)
(4.68207e-05 0.000111805 4.32098e-23 0.000286719 -5.35459e-23 1.57517e-38)
(5.49884e-05 0.000120696 3.64399e-24 0.00028728 -3.01623e-24 6.54535e-41)
(6.39638e-05 0.000128539 2.27445e-24 0.000282608 -1.09851e-24 1.56216e-41)
(7.38071e-05 0.00013507 2.75918e-24 0.00027238 -6.05518e-25 1.47688e-41)
(8.44274e-05 0.000140134 3.35434e-24 0.000257298 1.45341e-25 1.38505e-41)
(9.55998e-05 0.000143512 -1.92177e-24 0.000238115 -3.87082e-25 3.20358e-42)
(0.000107019 0.000145005 3.62961e-23 0.000215737 1.26381e-23 8.06582e-40)
(0.000118257 0.000144405 -1.86287e-23 0.00019121 -7.42738e-24 1.98545e-40)
(0.000128818 0.000141526 1.11049e-21 0.000165628 6.39281e-22 4.34764e-37)
(0.000138217 0.000136228 -1.21276e-21 0.000140072 -7.86523e-22 4.66956e-37)
(0.000146057 0.000128442 -2.20031e-23 0.000115548 -1.65855e-23 9.78287e-41)
(0.000152104 0.000118203 3.93573e-23 9.29535e-05 3.17566e-23 3.43638e-40)
(0.000156316 0.000105657 -2.82941e-24 7.30545e-05 -2.4394e-24 1.41461e-42)
(0.000158837 9.10666e-05 -1.11909e-23 5.64597e-05 -1.01023e-23 1.95113e-41)
(0.000159948 7.47965e-05 -5.5194e-24 4.35983e-05 -5.09982e-24 4.21688e-42)
(0.000160001 5.72834e-05 -5.37024e-24 3.46979e-05 -4.99732e-24 3.62606e-42)
(0.000159353 3.90041e-05 -1.03726e-23 2.97718e-05 -9.5467e-24 1.24556e-41)
(0.000158311 2.04425e-05 1.66182e-22 2.86196e-05 1.49397e-22 2.88224e-39)
(0.000157103 2.05876e-06 -1.60818e-22 3.08472e-05 -1.39861e-22 2.79634e-39)
(0.000155862 -1.57314e-05 1.42069e-22 3.59036e-05 1.143e-22 1.87601e-39)
(0.00015468 -3.25602e-05 -1.28832e-22 4.31377e-05 -9.56957e-23 1.61122e-39)
(0.00015367 -4.80894e-05 1.12327e-22 5.1811e-05 7.38287e-23 1.05516e-39)
(0.000152716 -6.20584e-05 -1.32099e-22 6.11741e-05 -7.56177e-23 1.51274e-39)
(0.000147434 -7.55735e-05 0 7.23519e-05 0 0)
(1.67547e-05 5.6729e-05 0 0.000198039 0 0)
(2.15956e-05 6.75017e-05 -6.83635e-26 0.000218656 5.85167e-24 7.94849e-41)
(2.71472e-05 7.85258e-05 7.68917e-24 0.000236853 -7.70414e-23 1.52175e-38)
(3.34312e-05 8.95582e-05 3.84649e-25 0.000252054 2.02078e-24 8.77353e-42)
(4.0531e-05 0.000100402 -2.63306e-23 0.000263634 8.45993e-23 2.03502e-38)
(4.85401e-05 0.000110853 -2.48593e-24 0.000271074 4.67642e-24 7.63982e-41)
(5.7525e-05 0.000120681 -3.13349e-24 0.000274016 4.69205e-24 7.41762e-41)
(6.77158e-05 0.000129906 2.945e-23 0.000272577 -2.55674e-23 3.3781e-39)
(7.8997e-05 0.00013806 -4.43505e-23 0.000266361 2.65865e-23 5.09864e-39)
(9.14569e-05 0.000144975 -1.08339e-25 0.000255467 -1.9353e-25 2.7336e-46)
(0.000104923 0.000150463 3.00527e-23 0.000240591 -1.97708e-24 9.29129e-40)
(0.000119113 0.000154314 -3.42313e-23 0.000222449 -1.729e-24 9.40316e-40)
(0.000133604 0.000156313 1.69672e-23 0.000201866 4.26869e-24 1.48743e-40)
(0.000147828 0.000156238 -2.11918e-23 0.000179736 -7.14879e-24 1.96916e-40)
(0.000161141 0.00015388 1.41091e-21 0.000156945 6.78942e-22 5.94483e-37)
(0.000172915 0.000149065 -1.48644e-21 0.000134326 -8.24745e-22 5.94485e-37)
(0.000182639 0.000141687 -2.53114e-23 0.00011263 -1.64898e-23 1.23052e-40)
(0.000190007 0.000131733 2.91023e-23 9.25206e-05 2.07746e-23 1.53686e-40)
(0.000194951 0.000119312 -4.89605e-23 7.45723e-05 -3.7587e-23 3.26415e-40)
(0.000197641 0.000104657 6.50984e-23 5.92676e-05 5.29971e-23 5.68133e-40)
(0.00019842 8.81178e-05 -8.59154e-26 4.69828e-05 -3.10696e-26 1.95622e-46)
(0.000197731 7.01311e-05 -9.97147e-23 3.7966e-05 -8.39717e-23 9.58456e-40)
(0.000196032 5.11879e-05 1.08999e-22 3.23146e-05 9.31913e-23 1.17876e-39)
(0.000193728 3.17947e-05 1.17693e-23 2.99604e-05 9.65937e-24 1.18421e-41)
(0.000191137 1.24398e-05 1.09803e-23 3.06679e-05 8.90083e-24 1.00243e-41)
(0.000188463 -6.43482e-06 -1.68642e-22 3.40574e-05 -1.26771e-22 2.09086e-39)
(0.000185863 -2.44294e-05 2.44033e-24 3.96347e-05 2.76182e-24 9.89438e-42)
(0.000183517 -4.11693e-05 1.73649e-22 4.68051e-05 1.1103e-22 2.18546e-39)
(0.000181327 -5.63631e-05 0 5.49193e-05 0 0)
(0.000173927 -7.16188e-05 0 6.51453e-05 0 0)
(2.17503e-05 6.51748e-05 0 0.000201324 0 0)
(2.76953e-05 7.63004e-05 1.76527e-25 0.000218223 -1.09088e-22 2.45154e-38)
(3.43281e-05 8.74669e-05 5.0114e-25 0.000233147 1.97676e-24 8.1156e-42)
(4.18829e-05 9.86137e-05 3.78916e-25 0.000245091 2.00438e-24 9.74899e-42)
(5.05028e-05 0.000109573 -5.43488e-23 0.000253545 1.95001e-22 8.13361e-38)
(6.03086e-05 0.000120142 4.10094e-23 0.000258153 -9.84118e-23 2.18022e-38)
(7.14236e-05 0.000130136 3.64476e-24 0.000258733 -5.39781e-24 8.10306e-41)
(8.40606e-05 0.000139523 0 0.000255459 0 0)
(9.8133e-05 0.000147844 -4.3697e-23 0.000247977 2.89309e-23 4.05841e-39)
(0.000113699 0.000154997 5.20965e-23 0.000236706 -2.45958e-23 4.15501e-39)
(0.000130517 0.000160785 -3.33196e-23 0.000222295 5.70232e-24 1.02087e-39)
(0.00014822 0.000165016 -5.07554e-25 0.000205422 -2.16845e-24 2.31015e-42)
(0.00016625 0.000167479 4.26671e-23 0.000186826 4.95154e-24 9.51982e-40)
(0.000183883 0.000167949 -1.47184e-24 0.000167247 -3.96977e-25 8.03763e-43)
(0.000200308 0.000166198 1.70492e-21 0.000147373 6.88933e-22 7.60574e-37)
(0.000214746 0.00016202 -1.79593e-21 0.000127808 -8.6063e-22 7.61264e-37)
(0.000226566 0.000155257 1.78264e-24 0.000109068 1.01982e-24 5.62092e-43)
(0.000235385 0.000145841 5.8799e-23 9.15967e-05 3.77404e-23 4.71635e-40)
(0.00024112 0.000133822 1.94426e-25 7.57876e-05 -8.39654e-26 2.34513e-42)
(0.000243968 0.000119385 -7.44146e-23 6.19948e-05 -5.50839e-23 6.23331e-40)
(0.000244348 0.000102846 1.25132e-22 5.05298e-05 9.5046e-23 1.38636e-39)
(0.000242802 8.46288e-05 -1.15793e-22 4.16421e-05 -9.10708e-23 1.20105e-39)
(0.000239899 6.52272e-05 0 3.54905e-05 0 0)
(0.000236158 4.51642e-05 -1.33949e-23 3.21153e-05 -1.04299e-23 1.29366e-41)
(0.000231993 2.49532e-05 2.07216e-22 3.14219e-05 1.53726e-22 2.68919e-39)
(0.000227687 5.06426e-06 -4.10468e-22 3.31866e-05 -2.92942e-22 1.04562e-38)
(0.000223472 -1.4067e-05 2.49491e-24 3.70677e-05 3.04986e-24 1.09296e-41)
(0.000219599 -3.20242e-05 -9.20789e-24 4.26179e-05 -4.44073e-24 2.80154e-42)
(0.000215989 -4.84836e-05 1.73092e-22 4.93041e-05 9.6329e-23 1.63986e-39)
(0.000206283 -6.56169e-05 0 5.82328e-05 0 0)
(2.84342e-05 7.44818e-05 -1.43221e-24 0.000201414 -1.58906e-23 3.91654e-40)
(3.57985e-05 8.58723e-05 0 0.000214542 0 0)
(4.38012e-05 9.70949e-05 4.39169e-25 0.000226212 -7.35147e-24 9.36785e-41)
(5.29528e-05 0.000108249 -1.49288e-23 0.000234981 1.13068e-22 2.0532e-38)
(6.34585e-05 0.000119188 2.76102e-23 0.000240455 -1.23207e-22 2.41837e-38)
(7.54563e-05 0.000129707 -4.32408e-23 0.000242421 1.15779e-22 2.26624e-38)
(8.9192e-05 0.000139731 5.89845e-23 0.000240907 -1.14e-22 2.33022e-38)
(0.000104728 0.000149055 3.96382e-23 0.000236012 -4.8615e-23 5.31976e-39)
(0.000122105 0.000157369 -1.05197e-22 0.000227602 9.11471e-23 2.37574e-38)
(0.000141291 0.000164589 -4.88087e-24 0.000216257 -2.19352e-24 3.63969e-42)
(0.000161979 0.000170546 6.6316e-23 0.000202578 -2.28951e-23 4.30467e-39)
(0.000183692 0.000175075 -4.16498e-23 0.000187199 3.12567e-24 1.03773e-39)
(0.000205719 0.000177984 2.26628e-23 0.000170764 -3.38783e-25 2.8869e-40)
(0.00022716 0.000179055 4.02553e-23 0.000153865 8.02365e-24 5.61327e-40)
(0.000247027 0.000178047 1.98542e-21 0.000137004 6.75839e-22 9.37647e-37)
(0.00026438 0.000174713 -2.11758e-21 0.000120576 -8.84425e-22 9.63699e-37)
(0.000278463 0.000168836 4.54445e-23 0.000104886 2.33296e-23 3.19177e-40)
(0.000288825 0.000160273 3.3156e-23 9.01769e-05 1.93731e-23 1.12437e-40)
(0.000295366 0.000148998 -6.63698e-23 7.66724e-05 -4.23319e-23 5.10889e-40)
(0.000298327 0.000135126 1.51339e-22 6.45988e-05 1.01965e-22 1.97392e-39)
(0.000298209 0.000118924 8.79583e-24 5.41932e-05 4.57715e-24 1.85778e-42)
(0.000295665 0.000100787 -2.46712e-22 4.56888e-05 -1.78596e-22 4.326e-39)
(0.00029139 8.11998e-05 1.28639e-22 3.92828e-05 9.47294e-23 1.12727e-39)
(0.000286022 6.06957e-05 2.48688e-22 3.51014e-05 1.78003e-22 3.42258e-39)
(0.000280082 3.98094e-05 -2.40874e-22 3.31706e-05 -1.71634e-22 3.3284e-39)
(0.000273944 1.90404e-05 2.28961e-22 3.34045e-05 1.54533e-22 2.52642e-39)
(0.000267916 -1.13871e-06 -2.35167e-22 3.56092e-05 -1.52031e-22 2.75048e-39)
(0.000262329 -2.02628e-05 1.33285e-23 3.94774e-05 7.81629e-24 7.64269e-42)
(0.000257117 -3.79763e-05 0 4.46011e-05 0 0)
(0.000244955 -5.70514e-05 -2.65219e-23 5.19393e-05 -1.10639e-23 2.39398e-41)
(3.72966e-05 8.44518e-05 1.85111e-24 0.000198017 1.70844e-23 4.23563e-40)
(4.64386e-05 9.59364e-05 -8.58327e-24 0.000207419 -1.46248e-22 2.90149e-38)
(5.61386e-05 0.000107067 -1.26165e-24 0.000215927 1.42738e-22 2.66733e-38)
(6.72523e-05 0.000118058 -9.0341e-25 0.000221672 8.75603e-24 1.01593e-40)