/*--------------------------------*- C++ -*----------------------------------*\
  =========                 |
  \\      /  F ield         | OpenFOAM: The Open Source CFD Toolbox
   \\    /   O peration     | Website:  https://openfoam.org
    \\  /    A nd           | Version:  12
     \\/     M anipulation  |
\*---------------------------------------------------------------------------*/
FoamFile
{
    format      ascii;
    class       volVectorField;
    location    "0";
    object      wallShearStress;
}
// * * * * * * * * * * * * * * * * * * * * * * * * * * * * * * * * * * * * * //

dimensions      [0 2 -2 0 0 0 0];

internalField   uniform (0 0 0);

boundaryField
{
    inlet
    {
        type            calculated;
        value           uniform (0 0 0);
    }
    outlet
    {
        type            calculated;
        value           uniform (0 0 0);
    }
    pipe-0
    {
        type            calculated;
        value           nonuniform List<vector> 
76
(
(-0.329358 -0.0449837 0)
(-0.32996 -0.0450632 3.91909e-20)
(-0.366195 -0.0484216 0)
(-0.365567 -0.0483394 0)
(-0.365567 0.0483394 0)
(-0.32996 0.0450632 -3.91909e-20)
(-0.314543 -0.0338434 1.37633e-20)
(-0.394982 -0.0265115 2.49061e-20)
(-0.394947 -0.026482 0)
(-0.401014 -0.00921185 3.96868e-21)
(-0.401543 -0.00924078 1.46153e-20)
(-0.401386 -0.00924923 7.44239e-21)
(-0.401469 0.00923907 1.46126e-20)
(-0.401783 0.00924918 -2.02937e-20)
(-0.394578 0.0264595 0)
(-0.39431 0.0264351 0)
(-0.382579 -0.0401545 -4.10823e-20)
(-0.370485 0.0467552 0)
(-0.38192 0.0400909 0)
(-0.38192 -0.0400909 -0)
(-0.32973 -0.0450319 -4.41869e-20)
(-0.304915 -0.0181518 0)
(-0.315242 -0.0339228 -2.54026e-20)
(-0.305154 -0.0181701 0)
(-0.301938 0 0)
(-0.305063 0.0181614 -1.99293e-21)
(-0.315171 0.0339125 0)
(-0.314672 0.0338612 -1.12645e-20)
(-0.347468 0.0500868 0)
(-0.36584 0.0483736 -6.56097e-20)
(-0.394746 0.0264771 0)
(-0.382575 0.0401542 4.10819e-20)
(-0.394699 0.026473 3.06908e-20)
(-0.401482 0.00924553 0)
(-0.401474 -0.00924531 -0)
(-0.3948 -0.0264624 -0)
(-0.395124 0.026521 -2.4915e-20)
(-0.366195 0.0484216 0)
(-0.394851 -0.0264842 -0)
(-0.329358 0.0449837 0)
(-0.36584 -0.0483736 6.56097e-20)
(-0.315242 0.0339228 0)
(-0.304915 0.0181518 0)
(-0.305154 0.0181701 0)
(-0.301938 0 0)
(-0.305063 -0.0181614 -0)
(-0.315171 -0.0339125 -0)
(-0.314672 -0.0338612 1.12645e-20)
(-0.305146 -0.0181662 0)
(-0.301793 0 0)
(-0.305136 0.0181687 0)
(-0.304975 0.0181575 0)
(-0.34755 -0.0500981 0)
(-0.347552 -0.0500992 -6.40758e-20)
(-0.329193 0.0449589 0)
(-0.32973 0.0450319 4.41869e-20)
(-0.342723 0.0494182 5.34263e-20)
(-0.382184 -0.0401128 0)
(-0.382603 -0.0401582 0)
(-0.39452 0.0264648 -1.27127e-20)
(-0.401765 0.00924437 0)
(-0.401854 -0.00925043 -0)
(-0.394604 -0.0264721 -0)
(-0.38224 0.0401187 0)
(-0.382595 0.0401574 0)
(-0.370485 -0.0467552 -0)
(-0.347552 0.0500992 6.40758e-20)
(-0.34755 0.0500981 0)
(-0.314543 0.0338434 -1.37633e-20)
(-0.347468 -0.0500868 -0)
(-0.342723 -0.0494182 -5.34263e-20)
(-0.329193 -0.0449589 -0)
(-0.305146 0.0181662 0)
(-0.301793 0 0)
(-0.305136 -0.0181687 -0)
(-0.304975 -0.0181575 -0)
)
;
    }
    pipe-1
    {
        type            calculated;
        value           nonuniform List<vector> 
78
(
(-0.402612 0.00927072 -9.93336e-21)
(-0.394882 0.0264934 0)
(-0.403448 -0.0092817 -0)
(-0.394953 -0.0264905 -0)
(-0.394716 0.0264708 0)
(-0.329979 -0.0450675 -3.99774e-20)
(-0.315292 0.0339313 0)
(-0.329153 -0.0449554 1.31726e-20)
(-0.315292 -0.0339313 0)
(-0.314638 0.033862 0)
(-0.366053 -0.0484044 0)
(-0.329979 0.0450675 3.99774e-20)
(-0.394716 -0.0264708 0)
(-0.402612 -0.00927072 9.93336e-21)
(-0.394882 -0.0264934 0)
(-0.394953 0.0264905 0)
(-0.403448 0.0092817 0)
(-0.402985 0.00927427 0)
(-0.394841 0.0264775 0)
(-0.401276 -0.00924593 -0)
(-0.382614 0.0401564 0)
(-0.366001 0.0483939 0)
(-0.347093 0.0500321 -2.61603e-20)
(-0.347299 0.0500622 0)
(-0.341403 0.0491531 0)
(-0.329565 0.045011 0)
(-0.329374 -0.0449841 -1.72829e-20)
(-0.347572 -0.0501018 6.14429e-20)
(-0.347093 -0.0500321 2.61603e-20)
(-0.347299 -0.0500622 0)
(-0.341403 -0.0491531 0)
(-0.329565 -0.045011 0)
(-0.329374 0.0449841 1.72829e-20)
(-0.382751 0.0401774 0)
(-0.395119 0.0264981 0)
(-0.394841 -0.0264775 0)
(-0.401276 0.00924593 0)
(-0.347528 -0.0500953 -3.43029e-20)
(-0.402518 -0.00926529 -0)
(-0.402518 0.00926529 0)
(-0.366053 0.0484044 0)
(-0.366243 -0.0484285 -5.67913e-20)
(-0.365541 -0.0483354 -0)
(-0.329153 0.0449554 -1.31726e-20)
(-0.314638 -0.033862 -0)
(-0.305091 0.0181611 2.77989e-21)
(-0.305003 0.018169 0)
(-0.3052 -0.0181631 2.70705e-21)
(-0.3051 -0.0181702 -0)
(-0.305091 -0.0181611 -2.77989e-21)
(-0.305003 -0.018169 0)
(-0.3052 0.0181631 -2.70705e-21)
(-0.3051 0.0181702 0)
(-0.366243 0.0484285 5.67913e-20)
(-0.347528 0.0500953 3.43029e-20)
(-0.366001 -0.0483939 0)
(-0.365541 0.0483354 0)
(-0.402985 -0.00927427 0)
(-0.395119 -0.0264981 -0)
(-0.382335 0.0401382 0)
(-0.38236 -0.0401325 -0)
(-0.382751 -0.0401774 -0)
(-0.314687 0.0338635 0)
(-0.305065 0.0181524 2.98101e-21)
(-0.30203 0 0)
(-0.30172 0 0)
(-0.304802 -0.0181449 -0)
(-0.315256 -0.0339248 2.4296e-20)
(-0.314687 -0.0338635 0)
(-0.305065 -0.0181524 -2.98101e-21)
(-0.30203 0 0)
(-0.30172 0 0)
(-0.304802 0.0181449 -2.62672e-21)
(-0.315256 0.0339248 0)
(-0.347572 0.0501018 -6.14429e-20)
(-0.382335 -0.0401382 0)
(-0.382614 -0.0401564 0)
(-0.38236 0.0401325 0)
)
;
    }
    pipe-2
    {
        type            calculated;
        value           nonuniform List<vector> 
78
(
(-0.315002 -0.033895 -1.48996e-20)
(-0.329246 -0.044968 -2.18675e-20)
(-0.329753 0.0450349 -4.32471e-20)
(-0.329271 0.0449729 -1.26104e-20)
(-0.3654 0.0483178 3.06265e-20)
(-0.394351 -0.0264448 0)
(-0.365279 -0.0483005 0)
(-0.366024 0.0483997 -3.85511e-20)
(-0.395216 -0.0265093 -6.65493e-20)
(-0.395216 0.0265093 6.65493e-20)
(-0.394351 0.0264448 0)
(-0.365279 0.0483005 0)
(-0.366024 -0.0483997 3.85511e-20)
(-0.329246 0.044968 2.18675e-20)
(-0.329753 -0.0450349 4.32471e-20)
(-0.3654 -0.0483178 -3.06265e-20)
(-0.329271 -0.0449729 1.26104e-20)
(-0.314579 -0.0338556 5.43148e-21)
(-0.329248 0.0449659 9.651e-21)
(-0.347513 -0.050093 -5.45389e-20)
(-0.36588 -0.0483823 0)
(-0.330054 -0.0450765 0)
(-0.347571 0.0501015 -5.16423e-20)
(-0.382178 -0.0401117 0)
(-0.382712 -0.0401753 6.96145e-20)
(-0.382178 0.0401117 0)
(-0.36588 0.0483823 0)
(-0.330054 0.0450765 0)
(-0.353595 -0.0502584 -0)
(-0.347571 -0.0501015 5.16423e-20)
(-0.314579 -0.0338467 0)
(-0.301687 0 0)
(-0.301725 0 0)
(-0.305188 0.0181685 -4.81377e-21)
(-0.31453 0.0338461 0)
(-0.315258 0.0339228 2.34765e-20)
(-0.39434 0.0264479 0)
(-0.401498 -0.00924582 1.51745e-20)
(-0.395158 0.0265037 0)
(-0.401497 0.00924581 1.51745e-20)
(-0.395158 -0.0265037 3.38716e-20)
(-0.39434 -0.0264479 -0)
(-0.315002 0.033895 1.48996e-20)
(-0.314579 0.0338467 0)
(-0.301687 0 0)
(-0.301725 0 0)
(-0.305188 -0.0181685 4.81377e-21)
(-0.315258 -0.0339228 -2.34765e-20)
(-0.31453 -0.0338461 -0)
(-0.305257 -0.0181726 0)
(-0.305261 -0.0181756 4.45005e-21)
(-0.301632 0 0)
(-0.305327 0.0181793 0)
(-0.352424 -0.0502869 -6.14421e-20)
(-0.353595 0.0502584 0)
(-0.382073 0.0400969 -2.99074e-20)
(-0.38276 0.0401822 -6.73173e-20)
(-0.40105 -0.0092153 0)
(-0.401434 -0.00924458 0)
(-0.401008 0.00923619 0)
(-0.401492 0.0092333 0)
(-0.401494 0.00924594 -7.78825e-21)
(-0.401434 0.00924458 0)
(-0.40105 0.0092153 0)
(-0.401492 -0.0092333 -0)
(-0.401495 -0.00924594 7.78825e-21)
(-0.401008 -0.00923619 -0)
(-0.382712 0.0401753 0)
(-0.382073 -0.0400969 2.99074e-20)
(-0.38276 -0.0401822 -0)
(-0.352424 0.0502869 6.14421e-20)
(-0.347513 0.050093 5.45389e-20)
(-0.314579 0.0338556 -5.43148e-21)
(-0.329248 -0.0449659 -9.651e-21)
(-0.305257 0.0181726 0)
(-0.305261 0.0181756 -4.45005e-21)
(-0.301632 0 0)
(-0.305327 -0.0181793 -0)
)
;
    }
    pipe-5
    {
        type            calculated;
        value           nonuniform List<vector> 
78
(
(-0.395364 0.0265142 0)
(-0.394381 0.0264465 1.89847e-20)
(-0.365372 0.0483129 0)
(-0.365958 -0.0483914 3.85444e-20)
(-0.329318 0.0449813 2.1874e-20)
(-0.329723 -0.0450323 -0)
(-0.365368 -0.0483097 -3.06213e-20)
(-0.329208 -0.0449609 1.26028e-20)
(-0.314869 -0.0338807 0)
(-0.329318 -0.0449813 -2.1874e-20)
(-0.329723 0.0450323 0)
(-0.329208 0.0449609 -1.26028e-20)
(-0.365368 0.0483097 3.06213e-20)
(-0.394381 -0.0264465 -1.89847e-20)
(-0.365372 -0.0483129 0)
(-0.365958 0.0483914 -3.85444e-20)
(-0.395364 -0.0265142 0)
(-0.395369 -0.0265169 -3.38883e-20)
(-0.382153 0.0401098 0)
(-0.382777 0.0401806 0)
(-0.330126 0.0450849 0)
(-0.353651 -0.0502662 -0)
(-0.314519 -0.0338491 5.43044e-21)
(-0.315226 0.0339254 0)
(-0.329236 0.0449568 0)
(-0.347492 -0.0500903 0)
(-0.365939 -0.0483888 0)
(-0.330126 -0.0450849 0)
(-0.382153 -0.0401098 0)
(-0.382777 -0.0401806 0)
(-0.395369 0.0265169 3.38883e-20)
(-0.403307 0.00928351 0)
(-0.39456 -0.0264622 -0)
(-0.314869 0.0338807 0)
(-0.314544 0.0338512 -1.00004e-20)
(-0.301686 0 0)
(-0.301709 0 0)
(-0.305179 -0.0181665 -0)
(-0.315226 -0.0339254 -2.34808e-20)
(-0.31455 -0.0338447 8.37442e-21)
(-0.314544 -0.0338512 1.00004e-20)
(-0.301686 0 0)
(-0.301709 0 0)
(-0.305179 0.0181665 0)
(-0.31455 0.0338447 0)
(-0.39456 0.0264622 0)
(-0.403307 -0.00928351 0)
(-0.402487 0.00926477 0)
(-0.401352 0.00923694 -6.764e-21)
(-0.403305 -0.00928495 -0)
(-0.402526 -0.0092582 -0)
(-0.401296 -0.00924576 -6.63881e-21)
(-0.365939 0.0483888 0)
(-0.382182 -0.040112 -0)
(-0.382748 -0.0401813 -0)
(-0.352432 0.0502876 0)
(-0.347492 0.0500903 0)
(-0.314519 0.0338491 0)
(-0.329236 -0.0449568 -0)
(-0.347591 -0.0501047 -0)
(-0.305264 0.018173 -4.39029e-21)
(-0.305283 0.0181742 -4.44972e-21)
(-0.301662 0 0)
(-0.305304 -0.0181767 4.08516e-21)
(-0.305264 -0.018173 0)
(-0.305283 -0.0181742 0)
(-0.301662 0 0)
(-0.305304 0.0181767 -4.08516e-21)
(-0.352432 -0.0502876 0)
(-0.347591 0.0501047 0)
(-0.353651 0.0502662 0)
(-0.382182 0.040112 0)
(-0.382748 0.0401813 0)
(-0.401352 -0.00923694 0)
(-0.402487 -0.00926477 0)
(-0.401296 0.00924576 6.63881e-21)
(-0.403305 0.00928495 0)
(-0.402526 0.0092582 0)
)
;
    }
    pipe-3
    {
        type            calculated;
        value           nonuniform List<vector> 
76
(
(-0.365597 0.0483394 0)
(-0.366198 0.0484237 0)
(-0.329988 0.0450687 0)
(-0.32932 -0.0449711 -1.78886e-20)
(-0.315142 0.0339108 0)
(-0.329988 -0.0450687 0)
(-0.366198 -0.0484237 0)
(-0.365597 -0.0483394 0)
(-0.403241 0.00928955 7.33219e-21)
(-0.402574 0.00926088 2.03464e-20)
(-0.394595 0.0264805 -3.32637e-20)
(-0.394471 0.0264431 0)
(-0.3826 -0.0401598 -0)
(-0.314521 -0.0338526 1.37637e-20)
(-0.315296 -0.0339299 2.54079e-20)
(-0.347502 -0.0500913 0)
(-0.34749 -0.0500902 6.40644e-20)
(-0.3826 0.0401598 0)
(-0.395021 -0.0264988 -4.31908e-20)
(-0.401234 -0.00921795 0)
(-0.403347 -0.009292 -7.33413e-21)
(-0.402255 -0.00925922 -7.46496e-21)
(-0.381905 -0.04009 -0)
(-0.370488 -0.0467556 -0)
(-0.370488 0.0467556 0)
(-0.381905 0.04009 0)
(-0.342676 -0.0494111 -0)
(-0.32969 -0.0450292 -0)
(-0.32969 0.0450292 0)
(-0.342676 0.0494111 0)
(-0.403317 -0.00928331 1.43747e-20)
(-0.394874 -0.026477 -0)
(-0.394852 -0.0264815 -0)
(-0.32932 0.0449711 1.78886e-20)
(-0.30496 0.0181571 -2.16977e-21)
(-0.305147 0.018173 0)
(-0.301968 0 0)
(-0.305116 -0.0181528 1.99199e-21)
(-0.315142 -0.0339108 -0)
(-0.31464 -0.0338612 -0)
(-0.30496 -0.0181571 2.16977e-21)
(-0.305147 -0.018173 0)
(-0.301968 0 0)
(-0.305116 0.0181528 -1.99199e-21)
(-0.31464 0.0338612 0)
(-0.365871 0.0483791 -6.56105e-20)
(-0.395057 -0.0265028 0)
(-0.394852 0.0264815 0)
(-0.394874 0.026477 0)
(-0.403317 0.00928331 0)
(-0.395111 0.0265064 0)
(-0.402687 -0.00926903 -0)
(-0.394712 -0.0264723 -0)
(-0.382273 0.0401237 0)
(-0.382667 0.0401646 3.87106e-20)
(-0.365871 -0.0483791 6.56105e-20)
(-0.34749 0.0500902 -6.40644e-20)
(-0.347502 0.0500913 0)
(-0.314521 0.0338526 -1.37637e-20)
(-0.315296 0.0339299 -2.54079e-20)
(-0.34749 -0.0500895 -0)
(-0.329171 -0.0449516 -0)
(-0.305118 0.0181556 0)
(-0.301809 0 0)
(-0.305195 -0.0181673 -0)
(-0.304978 -0.0181677 -3.39079e-21)
(-0.305118 -0.0181556 0)
(-0.301809 0 0)
(-0.305195 0.0181673 0)
(-0.304978 0.0181677 3.39079e-21)
(-0.329171 0.0449516 0)
(-0.34749 0.0500895 0)
(-0.382307 -0.0401273 0)
(-0.382667 -0.0401646 -3.87106e-20)
(-0.394712 0.0264723 0)
(-0.402687 0.00926903 0)
)
;
    }
    pipe-4
    {
        type            calculated;
        value           nonuniform List<vector> 
78
(
(-0.329168 -0.0449568 0)
(-0.315243 -0.0339209 0)
(-0.314576 0.0338477 -7.63849e-21)
(-0.365982 -0.048395 6.88519e-20)
(-0.329984 0.0450685 3.99687e-20)
(-0.394785 -0.0264742 -3.01368e-20)
(-0.400912 -0.00922813 0)
(-0.394825 -0.0264769 0)
(-0.394902 0.0264821 0)
(-0.401508 0.00924211 1.47642e-20)
(-0.400912 0.00922813 0)
(-0.394825 0.0264769 0)
(-0.40151 -0.00924213 1.47642e-20)
(-0.394903 -0.0264823 -0)
(-0.394785 0.0264742 3.01368e-20)
(-0.315243 0.0339209 0)
(-0.346976 -0.0500159 0)
(-0.347192 -0.050047 -2.64093e-20)
(-0.341445 -0.0491601 0)
(-0.329667 -0.0450252 4.41365e-20)
(-0.329442 0.0449942 0)
(-0.365964 -0.048393 0)
(-0.395082 0.0264939 0)
(-0.394553 -0.0264593 1.19065e-20)
(-0.401984 -0.00925254 0)
(-0.401037 0.00923027 0)
(-0.401468 0.00924058 0)
(-0.401984 0.00925254 1.71681e-20)
(-0.394553 0.0264593 -1.19065e-20)
(-0.40146 -0.00924039 -0)
(-0.401028 -0.00923007 -0)
(-0.346976 0.0500159 0)
(-0.347192 0.050047 2.64093e-20)
(-0.341445 0.0491601 0)
(-0.329442 -0.0449942 -0)
(-0.347569 -0.0501013 -0)
(-0.30515 -0.018169 0)
(-0.305004 -0.0181591 0)
(-0.305194 0.0181702 0)
(-0.305132 0.0181668 0)
(-0.366232 0.0484282 0)
(-0.34755 0.0500986 -3.43051e-20)
(-0.365465 0.0483263 2.96404e-20)
(-0.365982 0.048395 -6.88519e-20)
(-0.365964 0.048393 0)
(-0.365465 -0.0483263 -2.96404e-20)
(-0.329168 0.0449568 0)
(-0.329667 0.0450252 -4.41365e-20)
(-0.329984 -0.0450685 -3.99687e-20)
(-0.314576 -0.0338477 7.63849e-21)
(-0.366232 -0.0484282 -0)
(-0.34755 -0.0500986 3.43051e-20)
(-0.30515 0.018169 2.78099e-21)
(-0.305004 0.0181591 0)
(-0.305194 -0.0181702 -0)
(-0.305132 -0.0181668 -2.89064e-21)
(-0.314611 -0.0338519 0)
(-0.305061 -0.0181617 0)
(-0.301994 0 0)
(-0.301704 0 0)
(-0.304847 0.0181511 0)
(-0.315255 0.0339219 0)
(-0.347569 0.0501013 0)
(-0.382362 -0.0401352 -4.72618e-20)
(-0.382652 -0.0401649 3.95602e-20)
(-0.382687 0.0401688 0)
(-0.382306 0.0401297 0)
(-0.395082 -0.0264939 -0)
(-0.382652 0.0401649 -3.95602e-20)
(-0.382362 0.0401352 4.72618e-20)
(-0.382306 -0.0401297 -0)
(-0.382687 -0.0401688 -0)
(-0.314611 0.0338519 0)
(-0.305061 0.0181617 0)
(-0.301994 0 0)
(-0.301704 0 0)
(-0.304847 -0.0181511 -0)
(-0.315255 -0.0339219 -0)
)
;
    }
    frontAndBack
    {
        type            empty;
    }
    cyclic_top
    {
        type            cyclic;
    }
    cyclic_bottom
    {
        type            cyclic;
    }
}


// ************************************************************************* //
