/*--------------------------------*- C++ -*----------------------------------*\
  =========                 |
  \\      /  F ield         | OpenFOAM: The Open Source CFD Toolbox
   \\    /   O peration     | Website:  https://openfoam.org
    \\  /    A nd           | Version:  12
     \\/     M anipulation  |
\*---------------------------------------------------------------------------*/
FoamFile
{
    format      ascii;
    class       volScalarField;
    location    "260";
    object      p;
}
// * * * * * * * * * * * * * * * * * * * * * * * * * * * * * * * * * * * * * //

dimensions      [0 2 -2 0 0 0 0];

internalField   nonuniform List<scalar> 
6750
(
0.0216099
0.0215878
0.0215584
0.0213949
0.0203665
0.0231282
0.0230918
0.0229644
0.0226985
0.0223392
0.0249211
0.0248619
0.0247313
0.0245332
0.0243802
0.0268017
0.0267078
0.0265835
0.0264431
0.0263663
0.0286688
0.0285309
0.0283968
0.0282843
0.0282456
0.0304427
0.0302563
0.0301014
0.0299988
0.0299774
0.0320748
0.0318387
0.0316592
0.0315593
0.0315465
0.033536
0.0332509
0.0330467
0.0329476
0.0329399
0.0348078
0.0344761
0.0342492
0.0341509
0.0341468
0.0358798
0.0355055
0.0352591
0.0351621
0.0351607
0.0367486
0.0363371
0.0360751
0.0359801
0.0359805
0.0374174
0.0369751
0.0367018
0.0366092
0.0366106
0.0378957
0.0374286
0.0371492
0.0370589
0.0370607
0.0381975
0.0377115
0.0374322
0.0373431
0.0373442
0.0383358
0.0378441
0.0375702
0.0374786
0.0374776
0.0383358
0.0378442
0.0375702
0.0374787
0.0374776
0.0381975
0.0377116
0.0374323
0.0373432
0.0373443
0.0378958
0.0374288
0.0371493
0.037059
0.0370608
0.0374177
0.0369753
0.036702
0.0366094
0.0366109
0.0367489
0.0363374
0.0360754
0.0359804
0.0359808
0.0358802
0.0355059
0.0352594
0.0351625
0.0351611
0.0348083
0.0344765
0.0342496
0.0341513
0.0341473
0.0335366
0.0332514
0.0330472
0.0329482
0.0329404
0.0320754
0.0318393
0.0316598
0.0315599
0.0315471
0.0304433
0.030257
0.0301021
0.0299995
0.0299781
0.0286696
0.0285317
0.0283976
0.028285
0.0282463
0.0268025
0.0267086
0.0265844
0.026444
0.0263671
0.024922
0.0248628
0.0247322
0.0245342
0.0243812
0.0231293
0.0230928
0.0229654
0.0226995
0.0223402
0.021611
0.021589
0.0215595
0.021396
0.0203676
0.0141876
0.0147803
0.0162485
0.0173334
0.0181199
0.0187448
0.0192345
0.0196004
0.0198703
0.0200547
0.0201167
0.0201303
0.0200677
0.0199249
0.0197005
0.019391
0.0189933
0.0185105
0.0179456
0.0172988
0.0165645
0.0158474
0.0150923
0.0143144
0.0135339
0.0127634
0.0120125
0.011296
0.0106239
0.00994101
0.0180973
0.0188929
0.0196926
0.0200935
0.0203223
0.0204636
0.0205194
0.0204989
0.020431
0.0203128
0.020103
0.0199159
0.0197105
0.0194896
0.0192519
0.0189882
0.0186862
0.0183347
0.0179232
0.0174486
0.016929
0.0162956
0.015631
0.0149262
0.0141892
0.0134316
0.0126613
0.0118928
0.0111663
0.0104617
0.0205778
0.0207614
0.0210763
0.0212302
0.0213059
0.021314
0.0212426
0.0211024
0.0209146
0.0206437
0.0202941
0.0199589
0.0195957
0.0192154
0.0188242
0.0184218
0.0180049
0.0175684
0.0171065
0.0166145
0.0160912
0.0155362
0.0149558
0.0143495
0.013722
0.0130792
0.0124224
0.0117621
0.0111854
0.0107684
0.0220207
0.0217965
0.0219253
0.0220081
0.0220171
0.0219498
0.0218009
0.0215873
0.0213181
0.0209238
0.0204776
0.0200181
0.0195165
0.0189895
0.0184488
0.0179023
0.0173553
0.0168109
0.0162698
0.0157308
0.0151921
0.0146577
0.0141241
0.0135884
0.0130504
0.0125104
0.0119613
0.0114056
0.0109726
0.0108905
0.0231112
0.0227391
0.0227856
0.0227977
0.0227234
0.0225686
0.0223336
0.0220341
0.0216678
0.0211579
0.0206156
0.0200359
0.0194089
0.0187544
0.0180879
0.0174225
0.0167694
0.0161369
0.01553
0.0149505
0.0143977
0.013871
0.0133668
0.0128805
0.0124082
0.0119462
0.0114807
0.0110051
0.0106805
0.0109028
0.0240583
0.0236471
0.0236289
0.0235608
0.0234005
0.0231592
0.0228379
0.0224489
0.0219752
0.0213601
0.0207178
0.0200224
0.0192785
0.018508
0.0177294
0.0169598
0.0162145
0.0155052
0.0148398
0.0142219
0.0136516
0.0131261
0.0126412
0.0121903
0.0117676
0.0113665
0.0109683
0.0105588
0.0103246
0.0108195
0.0248962
0.0244912
0.0244148
0.02427
0.0240308
0.0237087
0.0233057
0.0228302
0.0222439
0.021535
0.0207926
0.0199873
0.0191336
0.0182549
0.0173725
0.0165068
0.0156762
0.0148951
0.0141734
0.0135162
0.0129238
0.0123933
0.0119189
0.011493
0.0111079
0.0107552
0.0104119
0.0100585
0.0099044
0.0106411
0.0256454
0.0252764
0.0251496
0.0249332
0.0246198
0.02422
0.023739
0.023179
0.0224796
0.021687
0.0208445
0.0199342
0.0189764
0.0179959
0.0170162
0.0160606
0.0151499
0.0143006
0.0135242
0.0128267
0.0122092
0.0116681
0.011197
0.0107873
0.01043
0.0101151
0.00981572
0.00950927
0.00942617
0.0103709
0.0263279
0.0260165
0.0258454
0.0255601
0.0251748
0.0247
0.0241435
0.0234945
0.022691
0.0218172
0.0208757
0.0198646
0.0188076
0.0177304
0.0166588
0.0156183
0.0146316
0.0137169
0.0128871
0.012149
0.0115038
0.0109479
0.0104742
0.0100734
0.00973562
0.00944931
0.0091844
0.00891669
0.00889657
0.0100148
0.0269605
0.0267213
0.0265106
0.0261579
0.0257024
0.0251561
0.0245235
0.0237775
0.0228843
0.021926
0.0208881
0.01978
0.0186276
0.0174578
0.0162983
0.0151765
0.0141169
0.0131389
0.0122565
0.0114771
0.0108021
0.0102278
0.00974675
0.00934882
0.0090236
0.00875821
0.00851965
0.0082836
0.00831971
0.00957914
0.0275558
0.0273988
0.0271521
0.0267324
0.026207
0.0255912
0.0248822
0.0240354
0.0230625
0.0220168
0.0208842
0.019682
0.0184368
0.0171772
0.0159326
0.0147321
0.0136014
0.0125614
0.0116266
0.0108049
0.0100981
0.00950231
0.00900964
0.00860955
0.00829105
0.00804007
0.00782095
0.0076106
0.00769726
0.00906885
0.0281239
0.0280561
0.0277763
0.0272892
0.026694
0.0260107
0.0252219
0.0242757
0.0232278
0.0220925
0.0208665
0.0195716
0.0182354
0.0168877
0.0155597
0.0142818
0.013081
0.0119792
0.0109915
0.0101264
0.0093857
0.00876545
0.00825744
0.00785076
0.00753394
0.00729176
0.00708616
0.00689641
0.00702877
0.00848762
0.0286745
0.0287008
0.0283905
0.0278364
0.0271726
0.0264177
0.0255414
0.0245081
0.0233818
0.0221554
0.0208367
0.0194499
0.0180233
0.0165882
0.0151773
0.0138223
0.0125514
0.0113873
0.0103457
0.0094355
0.00865853
0.00801088
0.00748403
0.00706673
0.0067471
0.00650876
0.00631151
0.00613792
0.00631179
0.0078373
0.0292173
0.0293393
0.0290014
0.02838
0.0276472
0.0268189
0.0258486
0.0247369
0.0235264
0.0222081
0.0207966
0.0193174
0.0178001
0.0162772
0.014783
0.0133502
0.0120082
0.0107804
0.00968319
0.00872564
0.0079098
0.00723165
0.00668247
0.00625071
0.00592411
0.0056851
0.00549152
0.00533015
0.00554186
0.00711759
0.0297597
0.029981
0.029617
0.0289276
0.0281253
0.0272185
0.0261524
0.0249648
0.0236654
0.0222533
0.0207476
0.0191746
0.0175651
0.015953
0.0143739
0.0128617
0.0114466
0.0101529
0.00899753
0.00798987
0.00713206
0.00642005
0.0058449
0.00539485
0.00505722
0.00481325
0.00461898
0.00446619
0.00471245
0.00632578
0.030309
0.0306373
0.0302499
0.0294921
0.0286131
0.0276171
0.0264644
0.025195
0.0238021
0.0222936
0.0206912
0.0190218
0.0173174
0.0156135
0.0139467
0.0123523
0.0108612
0.0094985
0.00828166
0.00722039
0.00631698
0.0055673
0.00496228
0.00448991
0.00413717
0.00388397
0.00368477
0.00353702
0.00381483
0.00545652
0.0308753
0.0313206
0.0309112
0.0300817
0.0291197
0.0280248
0.026791
0.0254311
0.02394
0.0223316
0.0206284
0.0188587
0.0170556
0.015256
0.0134977
0.0118169
0.0102458
0.00881
0.0075275
0.00640837
0.00545502
0.00466334
0.00402407
0.00352505
0.00315284
0.00288601
0.00267754
0.00253124
0.00283776
0.00450137
0.0314753
0.0320444
0.0316148
0.0307041
0.0296491
0.028457
0.0271372
0.0256783
0.0240834
0.0223696
0.0205604
0.0186849
0.0167777
0.0148769
0.0130218
0.0112495
0.00959314
0.00807897
0.00672562
0.00554346
0.00453507
0.00369632
0.00301785
0.00248731
0.00209088
0.00180567
0.00158332
0.00143465
0.00176706
0.00344841
0.0321328
0.0328188
0.0323713
0.0313737
0.0302112
0.0289253
0.0275077
0.0259418
0.0242364
0.0224101
0.0204875
0.018499
0.0164806
0.0144719
0.012513
0.0106425
0.00889424
0.00729525
0.0058647
0.00461329
0.0035438
0.00265208
0.00192866
0.00136107
0.00093503
0.000626155
0.000384847
0.000229518
0.00058488
0.00228147
0.0328667
0.033663
0.0331985
0.0321032
0.0308237
0.0294386
0.0279114
0.026229
0.0244037
0.0224555
0.02041
0.0182992
0.0161605
0.0140347
0.0119635
0.00998638
0.00813801
0.00644627
0.00493082
0.00360273
0.00246492
0.00151327
0.000738205
0.000127117
-0.000334721
-0.000673318
-0.000939395
-0.00110631
-0.000731305
0.000979129
0.0337026
0.0346104
0.0341175
0.0329045
0.0315094
0.0300101
0.0283595
0.0265482
0.0245905
0.0225078
0.0203271
0.018082
0.0158113
0.0135574
0.011363
0.00926869
0.00731021
0.00551607
0.00390645
0.00249274
0.00127804
0.000258204
-0.00057641
-0.00123856
-0.00174348
-0.00211888
-0.00241652
-0.00260092
-0.00221023
-0.000486876
0.0346814
0.0356826
0.0351487
0.0338126
0.0322901
0.030656
0.0288648
0.0269083
0.024802
0.0225686
0.0202369
0.0178421
0.0154247
0.0130284
0.0106973
0.00847301
0.00639214
0.00448388
0.00276888
0.00125884
-4.30197e-05
-0.00114086
-0.00204445
-0.00276667
-0.00332334
-0.00374397
-0.00408129
-0.00429036
-0.0038891
-0.002154
0.0358498
0.0369245
0.0363326
0.034865
0.0331895
0.0313968
0.0294432
0.02732
0.0250434
0.0226383
0.0201352
0.0175711
0.0149883
0.0124318
0.00994708
0.00757691
0.00535858
0.00332191
0.00148795
-0.000131358
-0.00153274
-0.00272042
-0.00370428
-0.00449743
-0.0051163
-0.00559232
-0.00597915
-0.00622189
-0.00581692
-0.00407254
0.0372755
0.0383967
0.0377295
0.0361024
0.0342411
0.0322596
0.0301144
0.0277953
0.02532
0.0227154
0.0200143
0.0172556
0.0144833
0.0117442
0.0090848
0.00654892
0.00417454
0.00199193
2.24099e-05
-0.00172196
-0.00323791
-0.0045298
-0.00560772
-0.00648498
-0.00717879
-0.00772262
-0.00817102
-0.00845881
-0.00805987
-0.00631149
0.0390714
0.040193
0.0394114
0.0375799
0.0354908
0.03328
0.030903
0.0283485
0.025636
0.0227949
0.0198606
0.0168741
0.0138814
0.0109307
0.00806996
0.00534351
0.00278987
0.000439531
-0.0016861
-0.00357504
-0.00522414
-0.006638
-0.00782695
-0.00880465
-0.00958916
-0.0102161
-0.010741
-0.0110885
-0.0107099
-0.00896835
0.0413647
0.042437
0.041478
0.0393809
0.0370053
0.0345073
0.0318416
0.0289965
0.0259936
0.0228655
0.0196503
0.0163918
0.0131377
0.00993788
0.00684114
0.00389231
0.00112991
-0.00141572
-0.00372346
-0.00578159
-0.0075873
-0.00914548
-0.0104668
-0.0115653
-0.01246
-0.0131887
-0.0138082
-0.0142339
-0.0138971
-0.0121837
0.0444112
0.0453227
0.0440854
0.0416326
0.0388838
0.036013
0.0329752
0.029759
0.0263894
0.0229026
0.0193404
0.0157491
0.0121786
0.00867988
0.0053019
0.00208924
-0.000920317
-0.00369731
-0.00622144
-0.00848165
-0.0104756
-0.0122083
-0.013691
-0.0149378
-0.0159687
-0.0168234
-0.0175595
-0.0180867
-0.0178251
-0.0161805
0.0485934
0.0491324
0.0474413
0.0444958
0.0412477
0.0378805
0.0343504
0.0306487
0.0268047
0.0228595
0.018859
0.0148527
0.0108923
0.00702906
0.00331138
-0.000217869
-0.003523
-0.0065767
-0.00936044
-0.0118644
-0.0140874
-0.0160351
-0.0177183
-0.0191516
-0.0203554
-0.0213704
-0.0222537
-0.0229156
-0.0227876
-0.0212973
0.0547836
0.0545755
0.0521394
0.0484931
0.0445395
0.0404509
0.0361962
0.0317804
0.0272445
0.0226394
0.018018
0.0134343
0.00894142
0.00458963
0.000424099
-0.00351652
-0.00720112
-0.0106065
-0.0137168
-0.0165227
-0.0190261
-0.021246
-0.0231779
-0.0248366
-0.0262431
-0.0274356
-0.028467
-0.0292632
-0.0293318
-0.0281624
0.0655912
0.0636963
0.0597055
0.0548287
0.0497111
0.044449
0.0390391
0.0335167
0.0279397
0.0223686
0.0168607
0.0114691
0.00624162
0.00121961
-0.00356256
-0.00807751
-0.0123044
-0.0162287
-0.0198419
-0.0231418
-0.0261245
-0.0287779
-0.0311276
-0.0331821
-0.0349523
-0.0364639
-0.0377621
-0.0388363
-0.0393906
-0.0388708
0.017854
0.0187915
0.020539
0.0219204
0.0230739
0.0241458
0.0251701
0.0261557
0.0271124
0.0280498
0.0289761
0.029899
0.0308268
0.031768
0.0327308
0.0337259
0.0347659
0.0358672
0.0370487
0.0383316
0.0397438
0.0413247
0.0431218
0.0452009
0.047651
0.0506074
0.0542552
0.0588075
0.0644914
0.0718286
0.0221739
0.023149
0.0242732
0.0252083
0.0260412
0.0268338
0.0275977
0.0283372
0.0290595
0.0297727
0.0304846
0.0312034
0.0319374
0.0326954
0.0334872
0.0343243
0.0352206
0.0361931
0.037262
0.038452
0.0397955
0.0413357
0.0431291
0.045254
0.0478199
0.0509896
0.0549976
0.0601658
0.0669816
0.0760334
0.024481
0.0253493
0.0261912
0.0269416
0.0276689
0.0283896
0.0291007
0.029803
0.0305015
0.0312019
0.0319104
0.0326336
0.0333788
0.0341541
0.0349692
0.0358353
0.0367666
0.0377804
0.0388979
0.0401461
0.0415603
0.0431874
0.0450904
0.0473567
0.05011
0.0535299
0.0578824
0.0635462
0.0711724
0.0814526
0.0264927
0.0272522
0.027979
0.0286498
0.0293134
0.0299796
0.0306474
0.0313196
0.0320013
0.0326977
0.0334147
0.0341584
0.0349359
0.0357553
0.0366262
0.0375602
0.0385716
0.0396784
0.0409027
0.0422732
0.0438273
0.0456149
0.0477031
0.0501852
0.0531925
0.0569144
0.0616316
0.0677397
0.0759805
0.0870919
0.0283698
0.0290367
0.0296741
0.0302742
0.030878
0.0314956
0.0321276
0.0327769
0.0334475
0.0341443
0.0348725
0.0356379
0.0364474
0.0373093
0.0382333
0.0392317
0.0403192
0.0415145
0.0428411
0.0443294
0.0460189
0.0479621
0.0502299
0.0529199
0.0561693
0.0601752
0.0652281
0.0717345
0.0805201
0.0923801
0.0300837
0.0306688
0.0312304
0.0317711
0.0323279
0.0329096
0.0335168
0.0341518
0.034818
0.0355199
0.0362621
0.0370504
0.0378915
0.0387937
0.0397671
0.0408239
0.0419797
0.0432538
0.0446708
0.0462624
0.04807
0.0501484
0.0525715
0.0554407
0.0588982
0.0631474
0.0684886
0.0753414
0.0846128
0.0971807
0.0316317
0.0321436
0.0326412
0.0331335
0.0336536
0.0342085
0.0347984
0.0354251
0.0360918
0.0368021
0.0375607
0.038373
0.0392457
0.040187
0.0412069
0.0423183
0.0435368
0.0448824
0.0463807
0.0480644
0.0499763
0.0521731
0.054731
0.0577546
0.06139
0.0658462
0.0714323
0.0785815
0.0882672
0.101463
0.0330089
0.0334552
0.0338979
0.0343508
0.0348421
0.0353769
0.0359549
0.0365777
0.0372478
0.0379686
0.0387445
0.0395804
0.0404832
0.0414608
0.0425237
0.0436845
0.0449596
0.0463693
0.0479397
0.0497046
0.0517079
0.0540078
0.0566823
0.0598384
0.0636254
0.0682571
0.0740501
0.0814497
0.0914748
0.105203
0.034207
0.0345944
0.0349906
0.0354117
0.0358806
0.0364005
0.0369708
0.0375925
0.0382678
0.0389998
0.0397922
0.0406503
0.0415803
0.0425906
0.0436914
0.0448958
0.0462202
0.0476854
0.049318
0.0511526
0.0532339
0.0556213
0.0583943
0.0616618
0.0655757
0.0703533
0.076318
0.0839252
0.0942186
0.108385
0.035219
0.0355547
0.0359123
0.0363083
0.0367602
0.0372694
0.0378349
0.0384573
0.0391384
0.0398809
0.0406885
0.0415661
0.04252
0.0435583
0.0446915
0.0459328
0.0472986
0.0488103
0.0504949
0.0523873
0.0545332
0.0569926
0.0598464
0.0632048
0.0672219
0.0721179
0.0782214
0.0859964
0.0964937
0.111015
0.036042
0.0363338
0.0366604
0.0370374
0.0374767
0.0379783
0.0385409
0.0391649
0.0398516
0.0406036
0.0414241
0.0423181
0.0432917
0.0443532
0.0455129
0.0467841
0.0481836
0.0497328
0.0514591
0.0533978
0.0555951
0.0581118
0.0610296
0.0644598
0.0685582
0.073547
0.0797591
0.0876656
0.0983106
0.113114
0.036678
0.0369345
0.0372376
0.0376006
0.0380309
0.0385273
0.0390884
0.0397141
0.0404058
0.0411654
0.0419964
0.0429033
0.0438925
0.044972
0.0461523
0.0474466
0.048872
0.05045
0.0522081
0.0541822
0.0564186
0.0589788
0.0619451
0.0654296
0.0695891
0.0746475
0.0809411
0.0889465
0.0996912
0.114714
0.0371343
0.0373645
0.037651
0.0380044
0.0384286
0.0389217
0.039482
0.0401093
0.0408047
0.0415702
0.0424088
0.0433253
0.0443258
0.0454183
0.0466134
0.0479244
0.0493683
0.0509669
0.0527478
0.0547471
0.0570114
0.0596024
0.062603
0.0661258
0.0703285
0.0754359
0.0817866
0.0898617
0.100666
0.115857
0.0374227
0.0376357
0.0379117
0.0382593
0.0386799
0.039171
0.039731
0.0403595
0.0410575
0.0418268
0.0426704
0.0435931
0.0446008
0.0457017
0.0469062
0.0482279
0.0496836
0.0512952
0.0530906
0.0551058
0.0573878
0.0599983
0.0630205
0.0665675
0.0707974
0.0759354
0.082322
0.0904409
0.101273
0.116586
0.0375582
0.0377629
0.0380339
0.0383788
0.0387977
0.039288
0.0398479
0.0404771
0.0411764
0.0419476
0.0427937
0.0437193
0.0447305
0.0458354
0.0470445
0.0483713
0.0498327
0.0514506
0.0532529
0.0552757
0.0575661
0.060186
0.0632185
0.066777
0.0710198
0.0761724
0.0825761
0.0907157
0.101555
0.116938
0.0375582
0.0377629
0.0380339
0.0383788
0.0387978
0.039288
0.039848
0.0404772
0.0411764
0.0419476
0.0427937
0.0437193
0.0447305
0.0458354
0.0470446
0.0483713
0.0498327
0.0514506
0.0532529
0.0552758
0.0575661
0.060186
0.0632185
0.066777
0.0710198
0.0761724
0.0825761
0.0907157
0.101555
0.116938
0.0374228
0.0376358
0.0379118
0.0382594
0.03868
0.0391711
0.039731
0.0403596
0.0410576
0.0418268
0.0426705
0.0435931
0.0446008
0.0457017
0.0469063
0.0482279
0.0496836
0.0512953
0.0530907
0.0551059
0.0573878
0.0599983
0.0630205
0.0665675
0.0707974
0.0759354
0.082322
0.0904409
0.101273
0.116586
0.0371345
0.0373647
0.0376511
0.0380045
0.0384288
0.0389218
0.0394821
0.0401094
0.0408048
0.0415703
0.0424089
0.0433254
0.0443259
0.0454184
0.0466135
0.0479245
0.0493684
0.0509669
0.0527479
0.0547471
0.0570114
0.0596025
0.062603
0.0661258
0.0703285
0.0754359
0.0817866
0.0898617
0.100666
0.115857
0.0366782
0.0369347
0.0372378
0.0376008
0.0380311
0.0385275
0.0390886
0.0397143
0.0404059
0.0411656
0.0419965
0.0429035
0.0438926
0.0449721
0.0461524
0.0474467
0.0488721
0.05045
0.0522082
0.0541823
0.0564187
0.0589789
0.0619451
0.0654296
0.0695891
0.0746475
0.0809411
0.0889464
0.0996911
0.114714
0.0360423
0.0363341
0.0366607
0.0370377
0.037477
0.0379786
0.0385412
0.0391651
0.0398518
0.0406038
0.0414243
0.0423183
0.0432919
0.0443534
0.0455131
0.0467843
0.0481837
0.0497329
0.0514592
0.0533979
0.0555951
0.0581118
0.0610296
0.0644598
0.0685582
0.073547
0.0797591
0.0876655
0.0983104
0.113114
0.0352194
0.035555
0.0359126
0.0363086
0.0367605
0.0372697
0.0378352
0.0384576
0.0391387
0.0398812
0.0406888
0.0415663
0.0425202
0.0435585
0.0446917
0.0459329
0.0472988
0.0488105
0.050495
0.0523874
0.0545332
0.0569927
0.0598464
0.0632048
0.0672219
0.0721179
0.0782214
0.0859963
0.0964936
0.111014
0.0342074
0.0345948
0.034991
0.035412
0.0358809
0.0364009
0.0369712
0.0375929
0.0382682
0.0390001
0.0397925
0.0406505
0.0415806
0.0425909
0.0436917
0.044896
0.0462204
0.0476855
0.0493182
0.0511527
0.053234
0.0556214
0.0583943
0.0616618
0.0655757
0.0703533
0.0763179
0.0839251
0.0942184
0.108384
0.0330094
0.0334557
0.0338984
0.0343512
0.0348425
0.0353773
0.0359553
0.0365781
0.0372481
0.037969
0.0387448
0.0395807
0.0404835
0.0414611
0.0425239
0.0436848
0.0449598
0.0463695
0.0479399
0.0497048
0.051708
0.0540079
0.0566824
0.0598384
0.0636254
0.068257
0.07405
0.0814495
0.0914745
0.105202
0.0316323
0.0321442
0.0326417
0.0331341
0.0336541
0.034209
0.0347989
0.0354256
0.0360922
0.0368025
0.0375611
0.0383734
0.0392461
0.0401873
0.0412072
0.0423185
0.043537
0.0448827
0.0463809
0.0480646
0.0499764
0.0521732
0.0547311
0.0577546
0.0613899
0.0658461
0.0714322
0.0785813
0.0882669
0.101463
0.0300844
0.0306694
0.0312311
0.0317717
0.0323285
0.0329102
0.0335174
0.0341523
0.0348185
0.0355203
0.0362625
0.0370508
0.0378919
0.0387941
0.0397674
0.0408242
0.04198
0.0432541
0.044671
0.0462626
0.0480702
0.0501485
0.0525716
0.0554408
0.0588982
0.0631473
0.0684885
0.0753412
0.0846125
0.0971803
0.0283706
0.0290374
0.0296748
0.0302748
0.0308786
0.0314962
0.0321282
0.0327774
0.0334481
0.0341449
0.034873
0.0356383
0.0364479
0.0373097
0.0382337
0.039232
0.0403195
0.0415148
0.0428414
0.0443296
0.0460191
0.0479622
0.05023
0.0529199
0.0561693
0.0601751
0.065228
0.0717343
0.0805198
0.0923797
0.0264935
0.027253
0.0279797
0.0286506
0.0293141
0.0299803
0.0306481
0.0313203
0.0320019
0.0326983
0.0334152
0.0341589
0.0349364
0.0357558
0.0366266
0.0375606
0.038572
0.0396787
0.040903
0.0422734
0.0438275
0.0456151
0.0477033
0.0501852
0.0531925
0.0569143
0.0616315
0.0677395
0.0759802
0.0870914
0.0244819
0.0253502
0.026192
0.0269424
0.0276696
0.0283904
0.0291014
0.0298037
0.0305022
0.0312026
0.031911
0.0326342
0.0333793
0.0341547
0.0349697
0.0358358
0.036767
0.0377807
0.0388982
0.0401464
0.0415605
0.0431876
0.0450906
0.0473568
0.0501101
0.0535298
0.0578823
0.063546
0.0711721
0.0814521
0.0221749
0.0231499
0.0242742
0.0252092
0.0260421
0.0268347
0.0275985
0.028338
0.0290602
0.0297734
0.0304853
0.0312041
0.031938
0.032696
0.0334878
0.0343248
0.0352211
0.0361935
0.0372624
0.0384523
0.0397958
0.0413359
0.0431293
0.0452541
0.04782
0.0509896
0.0549975
0.0601656
0.0669813
0.0760328
0.0178551
0.0187926
0.02054
0.0219214
0.0230748
0.0241467
0.025171
0.0261565
0.0271132
0.0280506
0.0289768
0.0298997
0.0308275
0.0317686
0.0327314
0.0337264
0.0347664
0.0358677
0.0370491
0.038332
0.0397442
0.041325
0.043122
0.0452011
0.0476511
0.0506074
0.0542552
0.0588073
0.0644911
0.0718281
0.0655906
0.0636957
0.0597049
0.0548281
0.0497105
0.0444485
0.0390386
0.0335162
0.0279392
0.0223681
0.0168602
0.0114687
0.00624124
0.00121928
-0.00356284
-0.00807775
-0.0123046
-0.0162288
-0.019842
-0.0231419
-0.0261245
-0.0287779
-0.0311275
-0.033182
-0.0349521
-0.0364637
-0.0377619
-0.0388361
-0.0393904
-0.0388706
0.0547833
0.0545752
0.052139
0.0484928
0.0445391
0.0404506
0.0361958
0.0317801
0.0272442
0.022639
0.0180177
0.013434
0.00894119
0.00458943
0.000423938
-0.00351664
-0.0072012
-0.0106066
-0.0137168
-0.0165227
-0.0190261
-0.0212459
-0.0231778
-0.0248364
-0.0262429
-0.0274354
-0.0284668
-0.029263
-0.0293316
-0.0281623
0.0485932
0.0491322
0.0474411
0.0444956
0.0412475
0.0378803
0.0343502
0.0306485
0.0268045
0.0228593
0.0188589
0.0148526
0.0108922
0.00702897
0.00331132
-0.000217889
-0.00352299
-0.00657665
-0.00936036
-0.0118643
-0.0140873
-0.016035
-0.0177181
-0.0191514
-0.0203552
-0.0213702
-0.0222535
-0.0229153
-0.0227873
-0.0212971
0.0444111
0.0453226
0.0440853
0.0416325
0.0388837
0.0360129
0.0329751
0.0297589
0.0263893
0.0229026
0.0193404
0.0157491
0.0121786
0.00867989
0.00530194
0.00208931
-0.000920224
-0.00369719
-0.00622129
-0.00848147
-0.0104754
-0.0122081
-0.0136907
-0.0149375
-0.0159684
-0.0168231
-0.0175593
-0.0180864
-0.0178248
-0.0161803
0.0413647
0.042437
0.041478
0.0393809
0.0370053
0.0345073
0.0318416
0.0289965
0.0259936
0.0228655
0.0196504
0.0163918
0.0131377
0.00993797
0.00684125
0.00389245
0.00113007
-0.00141553
-0.00372325
-0.00578136
-0.00758705
-0.00914521
-0.0104665
-0.011565
-0.0124596
-0.0131884
-0.0138079
-0.0142335
-0.0138968
-0.0121834
0.0390715
0.0401931
0.0394115
0.03758
0.0354909
0.0332801
0.0309031
0.0283486
0.0256361
0.0227951
0.0198607
0.0168743
0.0138816
0.0109309
0.00807014
0.00534372
0.00279009
0.000439781
-0.00168583
-0.00357475
-0.00522383
-0.00663768
-0.00782662
-0.00880431
-0.00958881
-0.0102158
-0.0107406
-0.0110881
-0.0107096
-0.00896807
0.0372757
0.0383969
0.0377297
0.0361026
0.0342413
0.0322598
0.0301146
0.0277955
0.0253202
0.0227156
0.0200145
0.0172558
0.0144835
0.0117444
0.00908505
0.00654919
0.00417483
0.00199223
2.27337e-05
-0.00172162
-0.00323756
-0.00452944
-0.00560734
-0.00648459
-0.0071784
-0.00772222
-0.00817063
-0.00845842
-0.0080595
-0.00631117
0.03585
0.0369248
0.0363328
0.0348652
0.0331898
0.0313971
0.0294435
0.0273202
0.0250437
0.0226385
0.0201355
0.0175714
0.0149885
0.0124321
0.00994739
0.00757723
0.00535892
0.00332227
0.00148833
-0.00013097
-0.00153234
-0.00272001
-0.00370387
-0.004497
-0.00511587
-0.00559189
-0.00597872
-0.00622146
-0.00581652
-0.00407219
0.0346817
0.0356829
0.035149
0.0338129
0.0322904
0.0306563
0.0288651
0.0269086
0.0248023
0.0225689
0.0202372
0.0178425
0.0154251
0.0130287
0.0106976
0.00847338
0.00639253
0.00448428
0.0027693
0.00125928
-4.25763e-05
-0.00114041
-0.00204399
-0.00276621
-0.00332288
-0.00374351
-0.00408083
-0.0042899
-0.00388866
-0.00215361
0.0337029
0.0346107
0.0341179
0.0329048
0.0315098
0.0300105
0.0283598
0.0265485
0.0245909
0.0225082
0.0203275
0.0180824
0.0158117
0.0135578
0.0113634
0.00926911
0.00731065
0.00551652
0.00390691
0.00249322
0.00127852
0.000258695
-0.000575915
-0.00123806
-0.00174298
-0.00211838
-0.00241603
-0.00260043
-0.00220977
-0.000486461
0.0328671
0.0336634
0.0331989
0.0321036
0.0308241
0.029439
0.0279118
0.0262294
0.0244041
0.0224559
0.0204104
0.0182996
0.0161609
0.0140352
0.011964
0.00998685
0.00813849
0.00644677
0.00493133
0.00360324
0.00246544
0.00151379
0.000738735
0.000127648
-0.000334191
-0.000672792
-0.000938874
-0.0011058
-0.00073081
0.000979574
0.0321333
0.0328192
0.0323717
0.0313742
0.0302116
0.0289258
0.0275082
0.0259423
0.0242368
0.0224106
0.020488
0.0184995
0.0164811
0.0144724
0.0125135
0.0106431
0.00889477
0.00729579
0.00586524
0.00461385
0.00354436
0.00265264
0.00192923
0.00136163
0.00093559
0.000626709
0.000385395
0.000230058
0.000585401
0.00228195
0.0314758
0.0320449
0.0316153
0.0307046
0.0296496
0.0284575
0.0271377
0.0256788
0.0240839
0.0223701
0.0205609
0.0186854
0.0167782
0.0148775
0.0130223
0.0112501
0.00959371
0.00807955
0.0067262
0.00554404
0.00453566
0.00369692
0.00301844
0.0024879
0.00209146
0.00180625
0.0015839
0.00143521
0.0017676
0.00344891
0.0308758
0.0313212
0.0309117
0.0300823
0.0291202
0.0280253
0.0267916
0.0254316
0.0239405
0.0223321
0.020629
0.0188593
0.0170562
0.0152566
0.0134983
0.0118175
0.0102464
0.00881061
0.00752812
0.00640899
0.00545565
0.00466396
0.0040247
0.00352567
0.00315345
0.00288662
0.00267814
0.00253183
0.00283833
0.0045019
0.0303096
0.0306379
0.0302505
0.0294927
0.0286137
0.0276177
0.026465
0.0251956
0.0238027
0.0222942
0.0206918
0.0190224
0.017318
0.0156141
0.0139474
0.0123529
0.0108619
0.00949915
0.00828232
0.00722105
0.00631763
0.00556795
0.00496293
0.00449056
0.00413781
0.0038846
0.00368539
0.00353763
0.00381541
0.00545707
0.0297604
0.0299816
0.0296176
0.0289282
0.028126
0.0272192
0.026153
0.0249655
0.023666
0.0222539
0.0207482
0.0191753
0.0175657
0.0159537
0.0143745
0.0128623
0.0114473
0.0101536
0.00899822
0.00799055
0.00713275
0.00642073
0.00584558
0.00539552
0.00505789
0.0048139
0.00461962
0.00446682
0.00471306
0.00632636
0.029218
0.0293399
0.0290021
0.0283806
0.0276478
0.0268195
0.0258492
0.0247376
0.0235271
0.0222088
0.0207972
0.0193181
0.0178007
0.0162779
0.0147837
0.0133509
0.0120089
0.0107811
0.0096839
0.00872636
0.00791052
0.00723237
0.00668318
0.00625141
0.00592479
0.00568577
0.00549218
0.0053308
0.00554248
0.00711818
0.0286752
0.0287015
0.0283913
0.0278371
0.0271733
0.0264184
0.0255422
0.0245088
0.0233825
0.0221562
0.0208375
0.0194506
0.018024
0.0165889
0.015178
0.0138231
0.0125522
0.011388
0.0103465
0.00943625
0.00865928
0.00801161
0.00748476
0.00706745
0.0067478
0.00650946
0.00631219
0.00613858
0.00631243
0.00783792
0.0281247
0.0280569
0.0277771
0.02729
0.0266948
0.0260115
0.0252227
0.0242765
0.0232286
0.0220933
0.0208673
0.0195724
0.0182362
0.0168885
0.0155605
0.0142825
0.0130818
0.0119799
0.0109923
0.0101272
0.00938647
0.00876621
0.0082582
0.00785151
0.00753467
0.00729248
0.00708686
0.00689709
0.00702943
0.00848826
0.0275566
0.0273996
0.0271528
0.0267332
0.0262078
0.025592
0.024883
0.0240362
0.0230634
0.0220176
0.0208851
0.0196828
0.0184376
0.017178
0.0159334
0.0147329
0.0136022
0.0125622
0.0116274
0.0108057
0.0100989
0.00950311
0.00901042
0.00861032
0.0082918
0.0080408
0.00782166
0.0076113
0.00769793
0.00906949
0.0269614
0.0267221
0.0265114
0.0261587
0.0257032
0.0251569
0.0245243
0.0237784
0.0228851
0.0219269
0.0208889
0.0197809
0.0186285
0.0174586
0.0162992
0.0151774
0.0141177
0.0131398
0.0122574
0.0114779
0.0108029
0.0102286
0.00974756
0.00934961
0.00902437
0.00875896
0.00852037
0.00828431
0.00832039
0.0095798
0.0263287
0.0260173
0.0258463
0.025561
0.0251757
0.0247008
0.0241444
0.0234954
0.0226919
0.0218181
0.0208766
0.0198655
0.0188085
0.0177313
0.0166597
0.0156192
0.0146325
0.0137178
0.012888
0.0121499
0.0115046
0.0109487
0.0104751
0.0100742
0.00973641
0.00945008
0.00918515
0.0089174
0.00889726
0.0100155
0.0256463
0.0252773
0.0251505
0.0249341
0.0246207
0.0242209
0.0237399
0.0231799
0.0224806
0.021688
0.0208455
0.0199352
0.0189774
0.0179968
0.0170172
0.0160616
0.0151508
0.0143015
0.0135251
0.0128276
0.01221
0.011669
0.0111979
0.0107881
0.0104308
0.0101159
0.00981647
0.00951
0.00942687
0.0103715
0.0248971
0.0244921
0.0244157
0.0242709
0.0240318
0.0237097
0.0233067
0.0228311
0.0222449
0.021536
0.0207936
0.0199883
0.0191346
0.0182559
0.0173734
0.0165078
0.0156771
0.014896
0.0141744
0.0135171
0.0129247
0.0123942
0.0119198
0.0114938
0.0111087
0.010756
0.0104127
0.0100593
0.00990511
0.0106418
0.0240593
0.0236481
0.0236299
0.0235617
0.0234015
0.0231602
0.022839
0.0224499
0.0219762
0.0213611
0.0207188
0.0200234
0.0192795
0.018509
0.0177304
0.0169608
0.0162155
0.0155062
0.0148408
0.0142229
0.0136525
0.0131271
0.0126421
0.0121912
0.0117684
0.0113673
0.0109691
0.0105595
0.0103253
0.0108202
0.0231122
0.0227401
0.0227867
0.0227987
0.0227244
0.0225696
0.0223347
0.0220352
0.0216689
0.021159
0.0206166
0.020037
0.01941
0.0187555
0.018089
0.0174236
0.0167705
0.0161379
0.015531
0.0149515
0.0143987
0.0138719
0.0133678
0.0128814
0.0124091
0.011947
0.0114815
0.0110059
0.0106812
0.0109034
0.0220217
0.0217975
0.0219264
0.0220092
0.0220182
0.0219508
0.021802
0.0215884
0.0213192
0.0209249
0.0204787
0.0200193
0.0195177
0.0189906
0.0184499
0.0179034
0.0173564
0.0168119
0.0162709
0.0157318
0.0151931
0.0146587
0.0141251
0.0135893
0.0130513
0.0125112
0.0119621
0.0114064
0.0109734
0.0108912
0.0205789
0.0207625
0.0210774
0.0212313
0.021307
0.0213151
0.0212438
0.0211035
0.0209158
0.0206449
0.0202953
0.0199601
0.0195968
0.0192166
0.0188254
0.018423
0.0180061
0.0175695
0.0171076
0.0166155
0.0160923
0.0155372
0.0149568
0.0143504
0.0137228
0.0130801
0.0124232
0.0117628
0.0111861
0.010769
0.0180983
0.018894
0.0196938
0.0200946
0.0203234
0.0204647
0.0205206
0.0205001
0.0204322
0.020314
0.0201042
0.0199171
0.0197117
0.0194908
0.0192531
0.0189894
0.0186874
0.0183359
0.0179243
0.0174497
0.01693
0.0162967
0.015632
0.0149271
0.0141901
0.0134324
0.0126621
0.0118935
0.011167
0.0104623
0.0141886
0.0147813
0.0162496
0.0173345
0.018121
0.0187459
0.0192356
0.0196016
0.0198715
0.020056
0.0201179
0.0201316
0.020069
0.0199262
0.0197018
0.0193922
0.0189945
0.0185117
0.0179468
0.0172999
0.0165657
0.0158485
0.0150933
0.0143154
0.0135348
0.0127643
0.0120134
0.0112969
0.0106246
0.00994173
-0.0405486
-0.0326055
-0.0266075
-0.021737
-0.0177167
-0.0143699
-0.0115465
-0.0091372
-0.00705888
-0.00524827
-0.00365671
-0.00224625
-0.000986873
0.000145475
0.00117029
0.00210352
0.00295831
0.00374546
0.00447374
0.00514997
0.00577914
0.00636421
0.00690609
0.00740349
0.00785251
0.00824483
0.00857053
0.0088273
0.00901676
0.0090628
-0.0406998
-0.0326294
-0.0263368
-0.0213364