/*--------------------------------*- C++ -*----------------------------------*\
  =========                 |
  \\      /  F ield         | OpenFOAM: The Open Source CFD Toolbox
   \\    /   O peration     | Website:  https://openfoam.org
    \\  /    A nd           | Version:  12
     \\/     M anipulation  |
\*---------------------------------------------------------------------------*/
FoamFile
{
    format      ascii;
    class       surfaceScalarField;
    location    "260";
    object      phi;
}
// * * * * * * * * * * * * * * * * * * * * * * * * * * * * * * * * * * * * * //

dimensions      [0 3 -1 0 0 0 0];

internalField   nonuniform List<scalar> 
13275
(
0.369023
-0.00462579
0.369481
-0.0114852
0.369794
-0.0154058
0.369909
-0.0173601
-0.0180301
0.369849
0.351098
-0.00489888
0.35146
-0.0118472
0.351681
-0.0156267
0.351643
-0.0173213
-0.0176325
0.351245
0.334002
-0.00502178
0.334077
-0.011923
0.333968
-0.0155176
0.333634
-0.0169872
-0.017094
0.333096
0.317721
-0.00499235
0.317511
-0.0117122
0.317103
-0.0151098
0.316533
-0.0164171
-0.0164196
0.315858
0.302245
-0.00483557
0.30179
-0.0112571
0.301125
-0.0144447
0.300336
-0.0156284
-0.0155828
0.299499
0.287534
-0.00457538
0.286872
-0.0105953
0.285978
-0.0135506
0.284977
-0.0146274
-0.0145638
0.283958
0.273546
-0.00422908
0.272706
-0.0097554
0.271606
-0.0124506
0.270403
-0.0134238
-0.0133581
0.269197
0.260244
-0.00381041
0.259251
-0.00876326
0.25797
-0.0111694
0.256582
-0.0120353
-0.0119755
0.255199
0.247593
-0.00333248
0.246476
-0.00764589
0.245043
-0.00973676
0.243497
-0.0104892
-0.0104388
0.24196
0.235564
-0.00280902
0.234351
-0.0064329
0.232802
-0.00818769
0.231133
-0.00882009
-0.00878013
0.229475
0.224129
-0.00225443
0.222852
-0.00515567
0.221225
-0.00656046
0.219472
-0.00706777
-0.00703782
0.21773
0.213259
-0.00168314
0.211949
-0.00384562
0.210283
-0.00489395
0.208488
-0.00527315
-0.00525211
0.206702
0.202927
-0.00110904
0.201614
-0.00253225
0.199945
-0.00322493
0.198147
-0.00347522
-0.00346182
0.196357
0.193107
-0.00054469
0.191817
-0.00124202
0.190177
-0.00158565
0.18841
-0.00170826
-0.00170154
0.18665
0.183771
-6.69654e-08
0.18253
-1.20937e-07
0.180944
-1.24828e-07
0.179236
-1.07311e-07
-8.41522e-08
0.177534
0.183771
0.000544556
0.18253
0.00124178
0.180944
0.0015854
0.179236
0.00170804
0.00170137
0.177534
0.193107
0.00110891
0.191817
0.00253201
0.190177
0.00322468
0.18841
0.00347501
0.00346166
0.18665
0.202927
0.00168301
0.201614
0.00384538
0.199945
0.00489371
0.198147
0.00527294
0.00525195
0.196357
0.213259
0.0022543
0.211949
0.00515543
0.210283
0.00656022
0.208488
0.00706756
0.00703766
0.206702
0.224129
0.00280889
0.222852
0.00643266
0.221225
0.00818745
0.219472
0.00881989
0.00877998
0.21773
0.235564
0.00333235
0.234351
0.00764567
0.232802
0.00973653
0.231133
0.010489
0.0104386
0.229475
0.247593
0.00381029
0.246476
0.00876304
0.245043
0.0111692
0.243497
0.0120352
0.0119754
0.24196
0.260244
0.00422897
0.259251
0.0097552
0.25797
0.0124504
0.256582
0.0134236
0.013358
0.255199
0.273546
0.00457527
0.272706
0.0105951
0.271606
0.0135504
0.270403
0.0146272
0.0145637
0.269197
0.287534
0.00483546
0.286872
0.011257
0.285978
0.0144445
0.284977
0.0156282
0.0155827
0.283958
0.302245
0.00499225
0.30179
0.011712
0.301125
0.0151097
0.300336
0.016417
0.0164196
0.299499
0.317721
0.00502168
0.317511
0.0119228
0.317103
0.0155174
0.316533
0.0169871
0.0170939
0.315858
0.334002
0.0048988
0.334077
0.0118471
0.333968
0.0156266
0.333634
0.0173213
0.0176325
0.333096
0.351098
0.00462572
0.35146
0.0114851
0.351681
0.0154058
0.351642
0.0173601
0.0180301
0.351245
0.369023
0.369481
0.369794
0.369909
0.369849
0.197356
-0.0505297
-0.197396
0.196943
-0.05777
0.195919
-0.064041
0.194264
-0.069558
0.192034
-0.0742859
0.189302
-0.078159
0.186137
-0.0810865
0.182617
-0.0829453
0.178829
-0.0835914
0.174887
-0.0829754
0.170876
-0.080901
0.166952
-0.0772306
0.163258
-0.0720477
0.15994
-0.0654428
0.157128
-0.0575943
0.154927
-0.0487576
0.153409
-0.0392447
0.152606
-0.0293936
0.152514
-0.0195398
0.153091
-0.00999146
0.154249
-0.000977145
0.15595
0.00728998
0.158083
0.0147221
0.160556
0.0212266
0.163282
0.026784
0.166181
0.0314138
0.169183
0.035162
0.172226
0.0380902
0.175251
0.0402686
0.0417629
0.178168
0.194725
-0.0506487
-0.194606
0.194061
-0.0571058
0.192707
-0.062687
0.190763
-0.0676137
0.188306
-0.0718289
0.185408
-0.0752618
0.182138
-0.0778158
0.178563
-0.0793709
0.17477
-0.0797984
0.170856
-0.0790607
0.166899
-0.0769443
0.163048
-0.0733794
0.159434
-0.0684342
0.156189
-0.0621973
0.15343
-0.0548352
0.151253
-0.0465815
0.149726
-0.0377177
0.148881
-0.0285479
0.148713
-0.0193722
0.149184
-0.0104628
0.150252
-0.00204487
0.151826
0.00571637
0.153838
0.0127099
0.1562
0.0188647
0.158827
0.0241566
0.161643
0.0285977
0.164581
0.0322245
0.167582
0.0350886
0.170592
0.0372595
0.0388702
0.173484
0.191408
-0.0503895
-0.191667
0.190441
-0.0561387
0.188873
-0.0611193
0.186784
-0.0655244
0.18424
-0.0692845
0.181299
-0.0723214
0.17802
-0.074537
0.174467
-0.075818
0.170726
-0.0760565
0.166873
-0.0752081
0.162994
-0.0730649
0.159225
-0.0696105
0.155688
-0.0648972
0.152503
-0.0590129
0.149782
-0.0521136
0.147613
-0.0444132
0.146062
-0.0361664
0.145161
-0.0276463
0.14491
-0.0191212
0.145281
-0.0108342
0.146224
-0.00298807
0.147673
0.00426733
0.149556
0.0108272
0.151792
0.0166285
0.154302
0.0216463
0.157012
0.0258879
0.159855
0.029382
0.162773
0.03217
0.165716
0.0343164
0.0360238
0.168563
0.187981
-0.049789
-0.188581
0.186756
-0.0549144
0.185006
-0.0593693
0.182791
-0.0633088
0.180166
-0.0666595
0.177184
-0.0693395
0.173898
-0.0712515
0.170368
-0.0722877
0.166679
-0.0723678
0.162891
-0.0714197
0.159094
-0.0692681
0.15541
-0.0659266
0.15195
-0.0614371
0.148824
-0.0558868
0.146133
-0.0494224
0.143961
-0.0422409
0.142368
-0.0345738
0.141389
-0.026667
0.141028
-0.0187606
0.141266
-0.0110717
0.142059
-0.00378094
0.143351
0.00297505
0.145076
0.00910191
0.147162
0.0145427
0.149535
0.0192738
0.152123
0.0232995
0.154862
0.0266429
0.157696
0.0293362
0.160576
0.0314363
0.0332125
0.163387
0.184473
-0.0488967
-0.185365
0.183023
-0.0534652
0.181105
-0.0574513
0.178771
-0.0609743
0.176069
-0.0639581
0.173048
-0.0663184
0.169757
-0.0679604
0.166253
-0.0687834
0.162615
-0.0687299
0.15889
-0.0676942
0.155173
-0.0655517
0.151571
-0.0623243
0.148184
-0.05805
0.145112
-0.0528147
0.142446
-0.0467572
0.140266
-0.0400601
0.138627
-0.0329347
0.137563
-0.0256034
0.137084
-0.0182819
0.137176
-0.0111638
0.137805
-0.00441001
0.138923
0.001857
0.140472
0.00755303
0.142387
0.0126276
0.144601
0.0170597
0.147049
0.0208522
0.149667
0.0240243
0.152402
0.0266013
0.155207
0.0286311
0.0304402
0.15798
0.180852
-0.0477414
-0.182008
0.179199
-0.0518118
0.177129
-0.0553817
0.174689
-0.0585344
0.171922
-0.0611905
0.168869
-0.0632658
0.165578
-0.0646692
0.162103
-0.0653087
0.158513
-0.0651392
0.154849
-0.0640309
0.151209
-0.061911
0.147683
-0.0587983
0.144363
-0.0547305
0.141341
-0.0497925
0.1387
-0.044116
0.13651
-0.0378709
0.134827
-0.0312511
0.133682
-0.0244588
0.133089
-0.0176882
0.133037
-0.0111123
0.133501
-0.00487419
0.134441
0.00091754
0.135805
0.00618857
0.137538
0.010895
0.139578
0.015019
0.141867
0.0185638
0.144345
0.0215458
0.146961
0.0239853
0.14967
0.0259222
0.0277251
0.152385
0.1771
-0.0463476
-0.178494
0.175263
-0.0499753
0.173061
-0.0531791
0.17053
-0.0560035
0.167707
-0.058368
0.164631
-0.0601897
0.161345
-0.0613829
0.157903
-0.0618662
0.154355
-0.0615919
0.150753
-0.0604282
0.147183
-0.058341
0.143727
-0.0553431
0.140471
-0.051474
0.137496
-0.0468172
0.134878
-0.0414984
0.132683
-0.0356761
0.130961
-0.0295291
0.129744
-0.0232416
0.129045
-0.016989
0.128859
-0.0109263
0.129166
-0.00518058
0.129931
0.000152555
0.131111
0.0050082
0.132657
0.00934896
0.134515
0.0131605
0.136632
0.016447
0.138954
0.0192236
0.141432
0.0215074
0.144023
0.0233317
0.0250909
0.146657
0.173206
-0.0447416
-0.174812
0.171209
-0.0479788
0.168892
-0.0508614
0.166284
-0.0533955
0.163416
-0.0555008
0.160324
-0.0570974
0.157046
-0.0581047
0.153635
-0.0584557
0.150129
-0.0580859
0.146585
-0.0568841
0.143081
-0.0548371
0.139692
-0.051954
0.136495
-0.0482767
0.133565
-0.0438874
0.130973
-0.0389059
0.128777
-0.0334807
0.127025
-0.0277768
0.125746
-0.0219627
0.124954
-0.0161972
0.124647
-0.0106192
0.124808
-0.00534137
0.125408
-0.000447814
0.126411
0.00400543
0.127773
0.00798708
0.129447
0.0114864
0.131385
0.0145091
0.133539
0.0170696
0.135863
0.0191833
0.138316
0.0208789
0.0225611
0.140846
0.169165
-0.0429508
-0.170956
0.167031
-0.0458451
0.164616
-0.0484457
0.161943
-0.0507228
0.15904
-0.0525976
0.155937
-0.0539946
0.15267
-0.0548378
0.149289
-0.0550748
0.145824
-0.0546208
0.142336
-0.0533963
0.138894
-0.0513953
0.135568
-0.0486274
0.132427
-0.0451363
0.129543
-0.0410028
0.126978
-0.0363412
0.124788
-0.0312905
0.123014
-0.0260035
0.121686
-0.0206345
0.120816
-0.0153272
0.120403
-0.0102062
0.120434
-0.00537176
0.120883
-0.00089726
0.121719
0.0031692
0.122904
0.00680192
0.124397
0.00999368
0.126155
0.0127516
0.128134
0.0150903
0.130293
0.017024
0.132593
0.0185788
0.0201567
0.134998
0.164973
-0.0410019
-0.166922
0.162723
-0.0435957
0.160225
-0.0459478
0.157499
-0.0479968
0.154568
-0.0496663
0.151459
-0.050886
0.148208
-0.0515867
0.144855
-0.0517217
0.141431
-0.0511963
0.137996
-0.0499619
0.134614
-0.0480126
0.131347
-0.0453607
0.128262
-0.0420516
0.125424
-0.0381644
0.122891
-0.0338078
0.120712
-0.0291122
0.118928
-0.0242192
0.117563
-0.0192696
0.11663
-0.0143939
0.116128
-0.00970401
0.116044
-0.00528855
0.116359
-0.00121177
0.117043
0.00248538
0.118062
0.00578223
0.119381
0.00867467
0.120962
0.0111713
0.122765
0.0132869
0.124754
0.0150354
0.126891
0.0164415
0.0178944
0.129153
0.160625
-0.0389201
-0.162707
0.15828
-0.0412502
0.155714
-0.0433823
0.152946
-0.0452279
0.149994
-0.0467143
0.146884
-0.0477761
0.143651
-0.048354
0.140325
-0.0483954
0.136941
-0.0478131
0.133559
-0.0465794
0.130234
-0.0446873
0.127026
-0.042153
0.123997
-0.0390228
0.121207
-0.035374
0.118709
-0.0313102
0.11655
-0.0269532
0.114765
-0.0224337
0.113376
-0.0178808
0.112394
-0.0134125
0.11182
-0.00912905
0.11164
-0.00510905
0.111837
-0.00140845
0.112384
0.00193806
0.113252
0.00491417
0.114408
0.00751846
0.115819
0.00976083
0.117449
0.0116562
0.119266
0.0132186
0.121235
0.0144723
0.0157861
0.123344
0.156119
-0.0367289
-0.15831
0.153696
-0.0388267
0.151076
-0.0407626
0.148274
-0.0424262
0.145309
-0.0437487
0.142202
-0.0446692
0.138988
-0.0451402
0.13569
-0.0450972
0.132349
-0.0444724
0.129018
-0.0432481
0.12575
-0.041419
0.122601
-0.0390042
0.119629
-0.0360512
0.11689
-0.0326349
0.114433
-0.0288535
0.112301
-0.0248208
0.110524
-0.0206572
0.109124
-0.0164805
0.108109
-0.0123973
0.107477
-0.00849747
0.107219
-0.00485035
0.107315
-0.00150464
0.107742
0.00151046
0.108474
0.00418235
0.109481
0.00651187
0.110732
0.00850987
0.112197
0.0101914
0.113845
0.0115705
0.115645
0.0126718
0.0138384
0.117593
0.151449
-0.0344497
-0.153728
0.148964
-0.0363414
0.146302
-0.0381008
0.143476
-0.0396006
0.140503
-0.0407757
0.137406
-0.0415716
0.134212
-0.0419469
0.130945
-0.0418296
0.127648
-0.0411753
0.124368
-0.0399689
0.121158
-0.0382084
0.118069
-0.0359158
0.115157
-0.0331392
0.112473
-0.0299508
0.110063
-0.0264434
0.107965
-0.0227227
0.106207
-0.0188993
0.104807
-0.0150805
0.103772
-0.0113622
0.103099
-0.00782458
0.102778
-0.00452891
0.10279
-0.00151731
0.103115
0.00118572
0.103727
0.00357072
0.104598
0.0056403
0.105702
0.00740597
0.107011
0.00888263
0.108497
0.0100846
0.110132
0.0110366
0.0120536
0.111917
0.146609
-0.0321021
-0.148957
0.144077
-0.0338086
0.141384
-0.0354083
0.138543
-0.0367599
0.13557
-0.0378023
0.132487
-0.0384887
0.129316
-0.0387755
0.126083
-0.0385965
0.122831
-0.0379238
0.119606
-0.0367435
0.116455
-0.0350575
0.11343
-0.0328905
0.110581
-0.0302902
0.107956
-0.0273263
0.105598
-0.0240857
0.103542
-0.0206664
0.101812
-0.0171694
0.100424
-0.0136918
0.0993813
-0.0103199
0.0986814
-0.00712474
0.0983127
-0.00416021
0.0982581
-0.0014627
0.0984964
0.000947389
0.099004
0.00306317
0.0997557
0.00488857
0.100726
0.0064354
0.101891
0.00771831
0.103224
0.00875162
0.1047
0.00956012
0.0104296
0.106324
0.141592
-0.0297031
-0.143991
0.139025
-0.0312419
0.136313
-0.0326965
0.133467
-0.0339133
0.1305
-0.0348353
0.127435
-0.0354244
0.12429
-0.0356303
0.121096
-0.0354025
0.117893
-0.0347211
0.114725
-0.0335749
0.111637
-0.0319696
0.108678
-0.0299317
0.105897
-0.0275086
0.103337
-0.0247666
0.101038
-0.0217869
0.0990313
-0.0186595
0.0973384
-0.0154765
0.0959718
-0.0123252
0.0949343
-0.00928243
0.0942208
-0.00641123
0.0938192
-0.00375866
0.0937126
-0.00135601
0.0938801
0.000779809
0.0942993
0.00264401
0.0949464
0.00424143
0.0957979
0.00558389
0.0968307
0.00668555
0.0980218
0.00756051
0.0993484
0.00823349
0.0089611
0.100817
0.136385
-0.027268
-0.13882
0.133798
-0.0286547
0.131078
-0.0299763
0.128234
-0.0310696
0.125282
-0.031883
0.12224
-0.032383
0.119127
-0.0325171
0.115977
-0.0322524
0.112828
-0.0315716
0.10972
-0.0304674
0.1067
-0.028949
0.103812
-0.0270443
0.101103
-0.0247995
0.0986139
-0.0222775
0.0963806
-0.0195535
0.0944308
-0.0167098
0.0927837
-0.0138294
0.0914488
-0.0109903
0.0904271
-0.00826081
0.0897121
-0.00569623
0.089291
-0.00333749
0.0891463
-0.00121133
0.0892578
0.000668325
0.0896035
0.00229833
0.0901608
0.0036841
0.0909075
0.00483714
0.0918221
0.00577094
0.0928835
0.0064992
0.0940707
0.0070462
0.00764028
0.0953916
0.130977
-0.0248113
-0.133433
0.128383
-0.0260609
0.125665
-0.0272587
0.122833
-0.0282375
0.119903
-0.028953
0.11689
-0.0293699
0.113816
-0.0294433
0.110716
-0.029152
0.107625
-0.0284808
0.104584
-0.0274266
0.101637
-0.0260013
0.0988261
-0.0242338
0.0961954
-0.0221688
0.0937833
-0.0198654
0.0916223
-0.0173925
0.0897371
-0.0148246
0.0881439
-0.0122362
0.08685
-0.00969638
0.0858544
-0.0072652
0.0851491
-0.00499088
0.0847203
-0.00290875
0.0845505
-0.00104151
0.0846194
0.000599441
0.0849055
0.00201224
0.085387
0.00320252
0.0860429
0.00418128
0.0868527
0.00496112
0.0877968
0.00555515
0.0888561
0.00598686
0.00645774
0.0900387
0.12535
-0.0223475
-0.127814
0.122763
-0.0234737
0.120059
-0.0245548
0.117249
-0.0254272
0.114348
-0.0260528
0.111371
-0.0263927
0.108345
-0.0264169
0.105301
-0.0261083
0.102276
-0.0254555
0.0993082
-0.0244589
0.09644
-0.023133
0.0937131
-0.0215069
0.0911676
-0.0196233
0.0888392
-0.017537
0.0867576
-0.0153109
0.0849445
-0.0130115
0.0834133
-0.010705
0.082169
-0.00845204
0.0812087
-0.00630491
0.0805231
-0.00430526
0.0800976
-0.0024833
0.0799143
-0.000858174
0.0799528
0.000560892
0.0801921
0.00177296
0.080611
0.00278365
0.0811891
0.0036032
0.081907
0.00424318
0.0827462
0.00471594
0.0836893
0.00504377
0.00540312
0.084744
0.119486
-0.0198924
-0.121941
0.116918
-0.0209057
0.114239
-0.0218758
0.111461
-0.0226495
0.108598
-0.0231896
0.105667
-0.0234617
0.102697
-0.0234467
0.0997183
-0.0231298
0.0967666
-0.0225037
0.0938801
-0.0215724
0.091099
-0.020352
0.0884633
-0.0188711
0.0860103
-0.0171704
0.0837731
-0.0152998
0.0817782
-0.013316
0.0800446
-0.0112779
0.0785831
-0.00924347
0.0773964
-0.00726533
0.0764799
-0.00538848
0.0758232
-0.00364848
0.0754107
-0.0020709
0.0752243
-0.000671702
0.0752435
0.000541685
0.0754475
0.00156898
0.0758155
0.00241557
0.076328
0.00309076
0.0769662
0.00360499
0.0777125
0.00396962
0.0785508
0.00420548
0.00446575
0.0794881
0.113358
-0.017462
-0.115788
0.110822
-0.0183697
0.10818
-0.0192336
0.105445
-0.0199147
0.10263
-0.0203743
0.0997563
-0.0205884
0.0968524
-0.0205427
0.0939488
-0.0202261
0.0910801
-0.0196351
0.088284
-0.0187763
0.0855991
-0.017667
0.083063
-0.0163351
0.0807108
-0.0148182
0.0785726
-0.0131616
0.076672
-0.0114154
0.0750253
-0.00963125
0.0736409
-0.00785902
0.0725193
-0.00614378
0.0716545
-0.0045237
0.0710348
-0.00302871
0.0706441
-0.00168018
0.0704636
-0.000491265
0.0704732
0.000532117
0.0706521
0.00139011
0.07098
0.00208767
0.0714377
0.00263306
0.0720072
0.00303547
0.0726717
0.00330516
0.073416
0.00346117
0.00363529
0.0742464
0.106931
-0.0150727
-0.10932
0.10444
-0.0158792
0.101849
-0.0166424
0.0991688
-0.0172343
0.0964148
-0.0176203
0.0936114
-0.0177849
0.0907855
-0.0177169
0.0879682
-0.0174088
0.0851938
-0.0168607
0.0824988
-0.0160813
0.0799201
-0.0150883
0.0774933
-0.0139084
0.0752509
-0.0125758
0.0732202
-0.0111308
0.0714219
-0.00961714
0.0698697
-0.00807907
0.0685696
-0.0065589
0.0675203
-0.0050945
0.0667143
-0.00371769
0.0661389
-0.00245325
0.0657774
-0.00131872
0.065611
-0.000324818
0.0656193
0.000523801
0.0657819
0.00122751
0.0660788
0.00179069
0.0664914
0.00222049
0.0670021
0.00252479
0.0675946
0.00271262
0.0682548
0.00280102
0.00290208
0.068988
0.100158
-0.0127419
-0.102489
0.09773
-0.0134513
0.0952045
-0.014117
0.092593
-0.0146228
0.0899155
-0.0149428
0.087196
-0.0150654
0.0844619
-0.0149828
0.0817443
-0.0146912
0.0790771
-0.0141935
0.0764955
-0.0134997
0.0740348
-0.0126276
0.0717284
-0.0116019
0.0696059
-0.0104533
0.0676918
-0.00921678
0.0660044
-0.00792964
0.0645544
-0.00662911
0.0633458
-0.00535026
0.0623755
-0.00412424
0.0616348
-0.00297697
0.0611101
-0.00192853
0.0607844
-0.000993048
0.0606387
-0.000179091
0.0606528
0.000509701
0.0608065
0.00107379
0.0610803
0.00151689
0.0614558
0.00184499
0.061916
0.00206461
0.0624451
0.00218351
0.0630296
0.00221651
0.00225766
0.063674
0.0929786
-0.0104898
-0.0952307
0.0906316
-0.0111044
0.0881883
-0.0116736
0.0856639
-0.0120984
0.0830801
-0.0123589
0.0804611
-0.0124465
0.0778351
-0.0123568
0.0752331
-0.0120892
0.0726883
-0.0116487
0.0702348
-0.0110462
0.0679058
-0.0102986
0.0657323
-0.00942841
0.0637413
-0.00846224
0.0619543
-0.00742981
0.0603867
-0.00636209
0.0590471
-0.00528949
0.0579372
-0.00424033
0.0570524
-0.00323947
0.0563829
-0.00230746
0.0559145
-0.00146014
0.0556301
-0.000708597
0.0555105
-5.95352e-05
0.055536
0.000484231
0.0556866
0.000923125
0.0559434
0.00126016
0.0562882
0.00150014
0.0567046
0.00164828
0.0571771
0.00171098
0.0576928
0.00170078
0.00169509
0.0582554
0.0853086
-0.00833902
-0.0874593
0.0830628
-0.00885861
0.080723
-0.00933383
0.0783071
-0.00968247
0.0758373
-0.00988908
0.073339
-0.00994824
0.0708408
-0.00985861
0.0683737
-0.00962208
0.06597
-0.00924495
0.0636621
-0.00873831
0.0614812
-0.00811775
0.0594556
-0.00740281
0.0576094
-0.00661602
0.0559613
-0.00578171
0.0545239
-0.0049247
0.0533034
-0.00406897
0.0522996
-0.00323652
0.0515066
-0.00244649
0.0509137
-0.00171457
0.0505064
-0.00105282
0.0502675
-0.000469661
0.0501781
2.98068e-05
0.0502189
0.00044342
0.0503706
0.000771487
0.0506144
0.00101631
0.050933
0.00118153
0.0513101
0.00127116
0.0517309
0.00129023
0.0521828
0.00124893
0.00120936
0.0526685
0.0770263
-0.00631546
-0.0790498
0.0749078
-0.00674014
0.0726981
-0.00712413
0.0704162
-0.00740061
0.0680859
-0.00755872
0.0657336
-0.00759593
0.0633881
-0.00751319
0.0610801
-0.00731407
0.0588407
-0.00700551
0.0567003
-0.00659797
0.0546878
-0.00610516
0.0528283
-0.0055434
0.0511432
-0.00493082
0.0496479
-0.00428647
0.0483525
-0.00362932
0.0472609
-0.00297733
0.0463712
-0.00234676
0.0456763
-0.0017516
0.0451649
-0.00120323
0.0448225
-0.000710396
0.0446321
-0.000279226
0.0445753
8.65275e-05
0.0446335
0.000385218
0.044788
0.000616988
0.0450209
0.000783442
0.0453152
0.000887189
0.0456553
0.000931089
0.0460266
0.000918912
0.046417
0.000858522
0.000797916
0.0468285
0.0679528
-0.00445235
-0.069816
0.0659955
-0.00478282
0.063949
-0.00507763
0.0618345
-0.00528605
0.059677
-0.00540128
0.057504
-0.00542293
0.0553443
-0.00535343
0.0532273
-0.00519712
0.0511826
-0.00496079
0.0492383
-0.00465364
0.0474201
-0.00428695
0.0457502
-0.00387352
0.0442464
-0.00342705
0.0429214
-0.00296147
0.0417824
-0.0024903
0.0408311
-0.00202606
0.0400642
-0.00157989
0.0394739
-0.00116126
0.0390485
-0.000777874
0.0387738
-0.000435619
0.0386332
-0.000138694
0.0386095
0.000110265
0.0386847
0.000310008
0.0388412
0.000460492
0.039062
0.000562687
0.0393309
0.000618274
0.0396328
0.000629134
0.0399538
0.000597912
0.0402821
0.000530267
0.000461196
0.0406188
0.0578091
-0.00279371
-0.0594678
0.0560577
-0.0030314
0.0542203
-0.00324028
0.05232
-0.00338574
0.0503829
-0.0034642
0.0484365
-0.00347652
0.0465087
-0.00342562
0.0446274
-0.0033158
0.0428196
-0.00315294
0.0411103
-0.00294438
0.0395219
-0.00269854
0.0380729
-0.00242456
0.0367777
-0.00213179
0.0356456
-0.0018294
0.0346813
-0.001526
0.0338846
-0.00122937
0.033251
-0.000946279
0.0327722
-0.00068243
0.0324367
-0.000442437
0.032231
-0.000229873
0.0321396
-4.73409e-05
0.0321465
0.00010342
0.032235
0.000221482
0.0323889
0.000306627
0.0325923
0.000359272
0.0328302
0.000380311
0.0330885
0.000370825
0.0333539
0.000332515
0.0336152
0.000269045
0.000203476
0.0338729
0.0461315
-0.00140442
-0.0475207
0.0446538
-0.00155377
0.0430964
-0.00168284
0.0414828
-0.00177215
0.0398389
-0.00182035
0.038191
-0.00182859
0.0365649
-0.00179951
0.0349857
-0.00173661
0.033477
-0.00164422
0.0320599
-0.0015273
0.0307526
-0.00139124
0.0295695
-0.00124149
0.0285211
-0.00108339
0.0276136
-0.000921898
0.0268491
-0.000761501
0.0262259
-0.000606104
0.0257386
-0.000459024
0.0253792
-0.000323013
0.0251371
-0.000200313
0.0249999
-9.27119e-05
0.0249541
-1.54225e-06
0.0249853
7.22077e-05
0.025079
0.000127855
0.0252205
0.00016508
0.0253959
0.0001839
0.0255916
0.000184589
0.0257948
0.000167593
0.0259935
0.000133847
0.0261772
8.53278e-05
3.44153e-05
0.0263463
0.0320921
-0.00039891
-0.0330976
0.0310082
-0.000469856
0.0298551
-0.000529724
0.0286537
-0.000570747
0.0274267
-0.000593414
0.0261972
-0.000599078
0.0249874
-0.000589657
0.023818
-0.000567264
0.0227079
-0.00053415
0.0216733
-0.000492636
0.020727
-0.000445006
0.019879
-0.000393409
0.0191354
-0.000339784
0.0184993
-0.000285822
0.0179707
-0.000232953
0.017547
-0.000182357
0.017223
-0.000134997
0.0169916
-9.16627e-05
0.0168443
-5.30155e-05
0.0167713
-1.97194e-05
0.0167622
7.58677e-06
0.0168047
2.97359e-05
0.0168875
4.50055e-05
0.016999
5.35745e-05
0.0171276
5.52771e-05
0.0172623
4.99779e-05
0.0173923
3.75579e-05
0.0175081
1.80037e-05
0.0176018
-8.33642e-06
-3.52835e-05
0.0176715
0.0141559
-0.0145548
0.013686
0.0131563
0.0125855
0.0119921
0.0113931
0.0108034
0.0102361
0.00970198
0.00920935
0.00876434
0.00837093
0.00803115
0.00774533
0.00751237
0.00733002
0.00719502
0.00710336
0.00705034
0.00703062
0.00703821
0.00706795
0.00711295
0.00716653
0.0072218
0.00727178
0.00730934
0.00732734
0.00731901
0.00728372
0.351225
-0.178773
0.333837
-0.177218
0.317076
-0.174907
0.300819
-0.172324
0.28496
-0.169505
0.269412
-0.16646
0.254122
-0.163203
0.239057
-0.159747
0.224202
-0.156101
0.209551
-0.15227
0.195105
-0.148262
0.180874
-0.144079
0.166872
-0.139726
0.153116
-0.135201
0.139629
-0.130504
0.126435
-0.125627
0.113563
-0.120561
0.101044
-0.115295
0.0889116
-0.109809
0.0772041
-0.104081
0.0659633
-0.0980794
0.0552376
-0.0917629
0.0450828
-0.085076
0.0355655
-0.077942
0.026768
-0.0702523
0.0187979
-0.0618458
0.011805
-0.0524748
0.00601768
-0.0417334
0.00183768
-0.0289176
-0.0127171
0.334628
-0.162156
0.318167
-0.160757
0.302124
-0.158864
0.286431
-0.156631
0.27103
-0.154104
0.255887
-0.151317
0.240982
-0.148298
0.226303
-0.145069
0.211848
-0.141645
0.197618
-0.138041
0.183624
-0.134267
0.169877
-0.130332
0.156393
-0.126242
0.143191
-0.122
0.130292
-0.117604
0.117719
-0.113053
0.105495
-0.108338
0.0936502
-0.103449
0.0822128
-0.0983715
0.071216
-0.0930841
0.0606966
-0.0875601
0.0506968
-0.0817631
0.0412656
-0.0756447
0.0324616
-0.069138
0.0243581
-0.0621488
0.0170516
-0.0545393
0.0106769
-0.0461002
0.00543844
-0.0364949
0.00167963
-0.0251588
-0.0110375
0.317358
-0.146419
0.301796
-0.145194
0.28649
-0.143558
0.271431
-0.141572
0.256605
-0.139278
0.242002
-0.136714
0.227619
-0.133915
0.213457
-0.130906
0.199521
-0.12771
0.185822
-0.124342
0.172374
-0.120819
0.159192
-0.11715
0.146292
-0.113343
0.133694
-0.109402
0.121418
-0.105328
0.109484
-0.101119
0.0979163
-0.0967704
0.086739
-0.0922721
0.0759789
-0.0876113
0.0656652
-0.0827705
0.055831
-0.0777259
0.0465137
-0.0724458
0.0377571
-0.0668881
0.0296139
-0.0609949
0.0221503
-0.0546852
0.0154532
-0.0478422
0.00964381
-0.0402908
0.00490313
-0.0317543
0.00152383
-0.0217795
-0.00951364
0.300886
-0.131446
0.286051
-0.130359
0.271388
-0.128895
0.256907
-0.127091
0.242617
-0.124988
0.228526
-0.122624
0.214647
-0.120035
0.200989
-0.117249
0.187568
-0.114288
0.174398
-0.111172
0.161495
-0.107916
0.148877
-0.104531
0.13656
-0.101026
0.124562
-0.097404
0.112902
-0.0936681
0.101599
-0.0898166
0.0906743
-0.0858453
0.0801485
-0.0817463
0.0700459
-0.0775087
0.0603924
-0.073117
0.0512172
-0.0685506
0.0425536
-0.0637823
0.0344409
-0.0587753
0.0269263
-0.0534803
0.0200693
-0.0478283
0.0139481
-0.041721
0.00867049
-0.0350132
0.00439471
-0.0274785
0.00136773
-0.0187525
-0.00814591
0.285161
-0.117108
0.270923
-0.116121
0.256815
-0.114787
0.242859
-0.113135
0.229076
-0.111205
0.215486
-0.109034
0.202108
-0.106657
0.188961
-0.104101
0.176061
-0.101389
0.163427
-0.0985383
0.151075
-0.0955647
0.139023
-0.0924792
0.127287
-0.0892895
0.115884
-0.0860006
0.10483
-0.0826143
0.0941432
-0.0791299
0.0838417
-0.0755438
0.0739447
-0.0718494
0.0644733
-0.0680373
0.0554504
-0.0640941
0.0469019
-0.0600021
0.0388575
-0.0557379
0.0313522
-0.0512701
0.0244285
-0.0465566
0.0181397
-0.0415395
0.0125554
-0.0361366
0.00777059
-0.0302284
0.00392226
-0.0236302
0.0012178
-0.016048
-0.0069281
0.270158
-0.103308
0.256441
-0.102404
0.242837
-0.101183
0.229377
-0.0996743
0.216087
-0.0979151
0.202994
-0.0959411
0.19012
-0.0937833
0.177486
-0.0914674
0.165112
-0.0890146
0.153015
-0.0864421
0.141214
-0.0837635
0.129724
-0.0809891
0.118561
-0.0781262
0.10774
-0.0751793
0.0972755
-0.0721503
0.0871842
-0.0690387
0.0774819
-0.0658414
0.0681855
-0.062553
0.0593136
-0.0591654
0.0508865
-0.055667
0.0429273
-0.0520429
0.0354624
-0.048273
0.0285232
-0.0443308
0.0221475
-0.0401809
0.0163829
-0.0357749
0.0112911
-0.0310448
0.00695526
-0.0258926
0.00349313
-0.020168
0.00107906
-0.013634
-0.00584904
0.255881
-0.0899914
0.242644
-0.089167
0.229519
-0.0880584
0.21654
-0.0866955
0.203738
-0.0851129
0.19114
-0.083343
0.17877
-0.0814138
0.166651
-0.0793483
0.154802
-0.0771655
0.143241
-0.0748809
0.131984
-0.0725064
0.121046
-0.0700513
0.110442
-0.0675219
0.100185
-0.0649223
0.090289
-0.0622542
0.0807675
-0.0595172
0.071635
-0.0567089
0.0629065
-0.0538245
0.0545983
-0.0508571
0.0467285
-0.0477972
0.0393175
-0.044632
0.032389
-0.0413445
0.025971
-0.0379127
0.0200971
-0.0343071
0.0148097
-0.0304875
0.0101632
-0.0263983
0.00623009
-0.0219595
0.00311155
-0.0170495
0.000954688
-0.0114771
-0.00489436
0.242341
-0.0771337
0.229567
-0.0763929
0.216912
-0.0754033
0.204411
-0.074194
0.192094
-0.0727966
0.179991
-0.0712399
0.168126
-0.0695482
0.156519
-0.0677417
0.14519
-0.0658368
0.134156
-0.0638468
0.123432
-0.0617822
0.113031
-0.0596506
0.102967
-0.0574578
0.093252
-0.055207
0.0838975
-0.0528998
0.0749161
-0.0505358
0.0663203
-0.0481131
0.0581235
-0.0456277
0.0503402
-0.0430738
0.0429864
-0.0404434
0.0360803
-0.0377259
0.029643
-0.0349072
0.0236994
-0.0319692
0.0182797
-0.0288874
0.0134213
-0.0256291
0.00917215
-0.0221491
0.00559552
-0.0183828
0.00277851
-0.0142325
0.000846028
-0.00954463
-0.00404833
0.229554
-0.0647272
0.217239
-0.0640779
0.205051
-0.0632161
0.193027
-0.0621696
0.181197
-0.0609663
0.169588
-0.0596308
0.158223
-0.0581836
0.147123
-0.0566419
0.136306
-0.0550196
0.125787
-0.0533277
0.11558
-0.0515748
0.105697
-0.0497677
0.0961496
-0.0479107
0.0869494
-0.0460068
0.0781069
-0.0440572
0.0696327
-0.0420617
0.0615382
-0.0400185
0.0538349
-0.0379245
0.046536
-0.0357748
0.0396556
-0.033563
0.03321
-0.0312803
0.027218
-0.0289153
0.021702
-0.0264531
0.0166888
-0.0238742
0.0122118
-0.0211521
0.00831313
-0.0182505
0.00504825
-0.0151179
0.00249261
-0.0116768
0.000753098
-0.00780512
-0.00329523
0.217522
-0.0527743
0.205668
-0.0522246
0.193952
-0.0514994
0.182406
-0.0506238
0.171061
-0.0496214
0.159943
-0.0485124
0.149073
-0.0473139
0.138471
-0.0460398
0.128152
-0.0447013
0.118132
-0.0433074
0.108423
-0.0418652
0.0990347
-0.0403798
0.089979
-0.038855
0.0812653
-0.0372931
0.0729031
-0.035695
0.064902
-0.0340606
0.0572719
-0.0323885
0.0500235
-0.030676
0.0431681
-0.0289195
0.0367187
-0.0271135
0.0306897
-0.0252513
0.0250982
-0.0233237
0.019964
-0.021319
0.0153114
-0.0192216
0.0111701
-0.0170107
0.00757745
-0.0146579
0.00458236
-0.0121229
0.00225072
-0.00934519
0.000675054
-0.00622945
-0.00262018
0.206237
-0.0412812
0.19485
-0.0408378
0.183607
-0.0402559
0.17254
-0.0395567
0.161677
-0.0387591
0.151044
-0.0378792
0.140661
-0.0369303
0.130544
-0.0359231
0.120709
-0.0348665
0.111169
-0.0337675
0.101935
-0.0326315
0.0930182
-0.0314625
0.0844266
-0.0302634
0.0761695
-0.029036
0.0682554
-0.027781
0.060693
-0.0264982
0.0534911
-0.0251866
0.0466593
-0.0238442
0.0402078
-0.022468
0.0341483
-0.0210541
0.028494
-0.019597
0.0232601
-0.0180898
0.0184647
-0.0165236
0.0141296
-0.0148864
0.0102814
-0.0131625
0.0069538
-0.0113303
0.00419013
-0.00935919
0.00204864
-0.00720371
0.000610533
-0.00479134
-0.00200964
0.195675
-0.0302543
0.184759
-0.0299217
0.17399
-0.0294869
0.1634
-0.0289665
0.153016
-0.0283746
0.142859
-0.0277229
0.13295
-0.0270211
0.123304
-0.0262773
0.113936
-0.0254978
0.104856
-0.0246877
0.0960755
-0.023851
0.0876035
-0.0229905
0.0794484
-0.0221084
0.0716182
-0.0212058
0.0641206
-0.0202834
0.0569635
-0.0193411
0.0501548
-0.0183779
0.0437033
-0.0173926
0.0376183
-0.016383
0.0319103
-0.0153461
0.0265915
-0.0142781
0.0216756
-0.013174
0.0171793
-0.0120273
0.0131223
-0.0108294
0.00952886
-0.00956909
0.00642937
-0.00823077
0.00386289
-0.00679271
0.00188159
-0.0052224
0.000557909
-0.00346766
-0.00145173
0.185801
-0.0196983
0.175357
-0.0194782
0.165061
-0.0191913
0.154944
-0.0188488
0.145029
-0.0184601
0.135339
-0.0180327
0.125891
-0.0175731
0.1167
-0.0170863
0.107779
-0.0165766
0.0991382
-0.0160471
0.0907877
-0.0155005
0.0827358
-0.0149386
0.0749903
-0.0143628
0.0675584
-0.0137739
0.0604472
-0.0131722
0.0536638
-0.0125577
0.0472158
-0.0119299
0.0411109
-0.0112877
0.0353578
-0.0106299
0.0299663
-0.0099546
0.0249474
-0.00925922
0.020314
-0.00854059
0.0160812
-0.00779452
0.0122673
-0.00701553
0.00889456
-0.00619634
0.00599079
-0.005327
0.00359167
-0.0043936
0.00174462
-0.00337535
0.000515483
-0.00223853
-0.000936251
0.176566
-0.00961432
0.166594
-0.00950578
0.156767
-0.00936465
0.147115
-0.00919649
0.137661
-0.00900582
0.128424