/*--------------------------------*- C++ -*----------------------------------*\
  =========                 |
  \\      /  F ield         | OpenFOAM: The Open Source CFD Toolbox
   \\    /   O peration     | Website:  https://openfoam.org
    \\  /    A nd           | Version:  12
     \\/     M anipulation  |
\*---------------------------------------------------------------------------*/
FoamFile
{
    format      ascii;
    class       volScalarField;
    location    "260";
    object      pMean;
}
// * * * * * * * * * * * * * * * * * * * * * * * * * * * * * * * * * * * * * //

dimensions      [0 2 -2 0 0 0 0];

internalField   nonuniform List<scalar> 
6750
(
0.00835645
0.00832929
0.00828379
0.00810625
0.00713453
0.0100453
0.0100176
0.00990153
0.00964716
0.00930784
0.0119849
0.0119355
0.0118165
0.0116292
0.0114897
0.0139954
0.0139114
0.0137984
0.0136681
0.0136032
0.0159805
0.0158526
0.0157302
0.0156284
0.0156018
0.0178604
0.0176843
0.017542
0.0174515
0.0174435
0.0195866
0.0193611
0.0191951
0.0191092
0.0191115
0.0211295
0.0208553
0.0206658
0.0205825
0.0205921
0.0224707
0.0221503
0.0219391
0.0218585
0.0218737
0.0236
0.0232374
0.0230077
0.0229301
0.0229497
0.0245145
0.024115
0.0238706
0.0237964
0.0238194
0.0252181
0.0247881
0.0245331
0.0244624
0.0244878
0.025721
0.0252664
0.0250058
0.0249383
0.0249649
0.0260383
0.0255649
0.0253047
0.025239
0.0252655
0.026184
0.0257049
0.0254501
0.0253822
0.025407
0.0261841
0.025705
0.0254502
0.0253824
0.0254071
0.0260387
0.0255653
0.0253051
0.0252394
0.025266
0.0257217
0.0252671
0.0250065
0.024939
0.0249657
0.0252191
0.024789
0.0245341
0.0244634
0.0244888
0.0245157
0.0241163
0.0238718
0.0237977
0.0238207
0.0236014
0.0232388
0.0230092
0.0229316
0.0229512
0.0224724
0.022152
0.0219409
0.0218603
0.0218754
0.0211314
0.0208572
0.0206677
0.0205845
0.020594
0.0195886
0.0193632
0.0191972
0.0191113
0.0191137
0.0178626
0.0176866
0.0175443
0.0174538
0.0174459
0.0159828
0.0158549
0.0157326
0.0156308
0.0156042
0.0139978
0.0139138
0.0138009
0.0136706
0.0136057
0.0119874
0.011938
0.011819
0.0116317
0.0114922
0.0100478
0.0100201
0.00990406
0.00964969
0.00931029
0.00835894
0.0083318
0.00828631
0.00810876
0.00713697
0.00133648
0.00186775
0.00321947
0.00420834
0.00491826
0.00548122
0.00592485
0.00626444
0.00652683
0.0067185
0.00682375
0.00690122
0.00692942
0.00690596
0.00682895
0.00669345
0.00649453
0.00623147
0.0059037
0.00550905
0.0050448
0.00459657
0.00411333
0.00360922
0.00310152
0.0026009
0.00211573
0.00166324
0.00125368
0.000769614
0.00506901
0.00578792
0.00651883
0.00687376
0.00707071
0.00719137
0.00723929
0.00722664
0.0071782
0.00708583
0.0069388
0.00682239
0.00670692
0.0065963
0.00648881
0.00637498
0.00624146
0.00607542
0.00586441
0.00560282
0.00530113
0.00489759
0.00446788
0.00400002
0.00350081
0.00298021
0.00244529
0.0019127
0.00142946
0.000947083
0.00751166
0.0076727
0.00796235
0.0080956
0.00815789
0.00816147
0.00809635
0.00797446
0.00781172
0.00757517
0.00729031
0.00702133
0.00673974
0.00645679
0.00617834
0.00590431
0.00563111
0.00535285
0.00506276
0.00475461
0.00442494
0.0040745
0.00370287
0.00330959
0.00289793
0.0024722
0.00203223
0.00158832
0.00122255
0.000973727
0.00899199
0.00878431
0.00890799
0.00898098
0.00898635
0.0089236
0.00878877
0.0085969
0.00835194
0.00800001
0.00761294
0.00721341
0.0067846
0.00634292
0.00590024
0.00546486
0.00504251
0.00463601
0.00424574
0.00386957
0.0035047
0.00315365
0.00280996
0.00246959
0.00213081
0.00179225
0.00144643
0.00109537
0.000852259
0.000880049
0.0101461
0.00980923
0.00986098
0.00987181
0.00980264
0.00966021
0.00944526
0.00917022
0.00882798
0.00836515
0.00787474
0.00734915
0.00678634
0.00620583
0.00562359
0.00505369
0.00450798
0.00399507
0.00352005
0.00308425
0.00268623
0.00232384
0.00199197
0.00168425
0.00139524
0.00111958
0.000843827
0.000561924
0.000412888
0.00069826
0.0111712
0.0108039
0.0107984
0.0107369
0.010589
0.010366
0.010069
0.00970606
0.0092572
0.00868983
0.00809237
0.00744478
0.00675616
0.00604827
0.00534057
0.00465142
0.00399706
0.00339007
0.00283865
0.00234641
0.00191281
0.00153423
0.00120478
0.00091663
0.000662081
0.000433074
0.000211321
-1.54765e-05
-8.70048e-05
0.000431237
0.0120997
0.0117412
0.0116828
0.0115511
0.0113297
0.0110299
0.0106536
0.0102037
0.00964435
0.00898021
0.00827562
0.00751105
0.00670313
0.00587559
0.00505096
0.00425116
0.00349587
0.0028007
0.00217628
0.00162783
0.00115559
0.000755686
0.000421214
0.000143132
-8.78014e-05
-0.000281692
-0.000460932
-0.000642186
-0.000645799
7.9105e-05
0.0129502
0.0126249
0.0125197
0.0123214
0.0120298
0.0116551
0.0112012
0.0106641
0.0099948
0.00924021
0.00842881
0.00755149
0.00662971
0.00568879
0.00475397
0.00385013
0.00299972
0.00222079
0.00152587
0.000921482
0.000408481
-1.70423e-05
-0.000362685
-0.000638417
-0.00085462
-0.00102321
-0.00116979
-0.00131424
-0.00125829
-0.000354752
0.013743
0.0134677
0.0133202
0.0130567
0.0126961
0.012248
0.0117166
0.0110878
0.0103162
0.0094718
0.00855454
0.00756814
0.00653693
0.00548767
0.00444804
0.00344543
0.00250454
0.00164541
0.00088207
0.000222086
-0.000333188
-0.000787686
-0.00114946
-0.0014292
-0.00163814
-0.00178968
-0.00191231
-0.0020275
-0.00191927
-0.00086539
0.0144936
0.0142787
0.0140918
0.0137639
0.0133346
0.0128147
0.0122047
0.0114778
0.010614
0.00967663
0.00865536
0.00756299
0.00642573
0.00527193
0.00413149
0.00303394
0.00200594
0.00106911
0.000238749
-0.000476776
-0.0010757
-0.00156197
-0.00194398
-0.00223295
-0.00244092
-0.00258231
-0.00268857
-0.0027811
-0.00262645
-0.00144814
0.0152133
0.0150656
0.0148415
0.0144486
0.01395
0.0133589
0.012669
0.011841
0.0108914
0.0098583
0.00873423
0.00753791
0.00629685
0.0050411
0.00380254
0.00261261
0.00149961
0.000486565
-0.000410212
-0.00118167
-0.00182571
-0.00234629
-0.00275208
-0.00305474
-0.00326687
-0.00340404
-0.00350028
-0.00357574
-0.00337947
-0.00209943
0.0159114
0.0158354
0.0155759
0.015117
0.0145482
0.0138859
0.013112
0.0121846
0.0111509
0.01002
0.0087937
0.00749442
0.00615077
0.0047945
0.00345933
0.00217835
0.000981373
-0.000107395
-0.00107074
-0.00189903
-0.00258989
-0.00314729
-0.0035801
-0.00390037
-0.00412119
-0.00425923
-0.00435079
-0.00441402
-0.00418019
-0.00281725
0.0165969
0.0165954
0.0163023
0.0157765
0.0151374
0.0143999
0.0135349
0.0125167
0.0113949
0.0101646
0.00883593
0.00743372
0.00598768
0.00453124
0.0030998
0.00172802
0.000447001
-0.000717935
-0.00174878
-0.00263538
-0.00337513
-0.00397198
-0.004435
-0.00477655
-0.00501013
-0.00515354
-0.00524529
-0.00530059
-0.00503246
-0.0036016
0.0172786
0.0173528
0.0170276
0.0164336
0.0157229
0.0149074
0.0139455
0.0128417
0.0116264
0.0102949
0.00886295
0.00735683
0.00580754
0.00425016
0.00272169
0.00125821
-0.000107929
-0.00135042
-0.00245052
-0.00339757
-0.00418874
-0.00482797
-0.00532452
-0.005691
-0.00594124
-0.00609427
-0.00619066
-0.00624185
-0.00594217
-0.0044547
0.0179635
0.0181174
0.017761
0.0170971
0.0163121
0.0154128
0.0143527
0.013163
0.0118493
0.010414
0.00887667
0.00726454
0.00561004
0.00394983
0.00232242
0.00076524
-0.000688182
-0.0020106
-0.00318255
-0.00419294
-0.00503867
-0.00572366
-0.00625731
-0.00665245
-0.00692333
-0.00709013
-0.00719544
-0.00724616
-0.00691729
-0.00538133
0.0186593
0.0189005
0.0185146
0.0177788
0.0169125
0.0159191
0.0147664
0.0134843
0.0120673
0.0105249
0.00887889
0.00715746
0.00539456
0.0036284
0.00189894
0.000244906
-0.00129906
-0.00270481
-0.00395217
-0.00502958
-0.00593371
-0.00666843
-0.00724323
-0.00767112
-0.00796678
-0.00815163
-0.00827016
-0.00832401
-0.00796814
-0.00638909
0.0193762
0.0197151
0.0193004
0.0184883
0.0175333
0.0164366
0.0151935
0.0138104
0.0122847
0.0106307
0.00887126
0.00703593
0.00516013
0.00328359
0.00144766
-0.000307655
-0.00194664
-0.00344023
-0.00476759
-0.00591668
-0.0068839
-0.00767303
-0.00829368
-0.00875897
-0.00908389
-0.0092914
-0.00942777
-0.00948848
-0.00910767
-0.00748882
0.0201312
0.020575
0.0201328
0.0192345
0.0181799
0.0169803
0.01564
0.0141473
0.0125064
0.0107344
0.00885539
0.00690001
0.00490529
0.00291243
0.000964177
-0.000898237
-0.00263802
-0.00422524
-0.00563836
-0.00686486
-0.00790083
-0.00874999
-0.00942196
-0.00993
-0.0102894
-0.0105247
-0.010684
-0.0107557
-0.0103522
-0.00869515
0.0209465
0.0214924
0.0210245
0.0200325
0.0188645
0.0175619
0.0161124
0.0145013
0.0127374
0.0108395
0.0088327
0.00674934
0.00462789
0.00251107
0.000442978
-0.00153394
-0.00338183
-0.00506986
-0.00657584
-0.00788673
-0.00899832
-0.00991419
-0.010644
-0.0112011
-0.0116011
-0.0118702
-0.012058
-0.0121456
-0.0117216
-0.0100272
0.021842
0.0224895
0.0219948
0.0208966
0.0196057
0.0181923
0.0166213
0.0148811
0.0129837
0.0109494
0.0088045
0.00658298
0.00432489
0.00207442
-0.000122983
-0.00222364
-0.00418867
-0.00598639
-0.00759389
-0.00899764
-0.0101931
-0.0111837
-0.0119792
-0.0125928
-0.0130406
-0.0133504
-0.0135735
-0.0136827
-0.0132415
-0.01151
0.0228461
0.023598
0.0230668
0.0218442
0.0204272
0.0188865
0.0171792
0.0152964
0.0132522
0.0110678
0.00877167
0.00639911
0.00399185
0.00159555
-0.000742948
-0.0029788
-0.00507209
-0.0069903
-0.00870985
-0.0102167
-0.0115061
-0.0125811
-0.0134515
-0.0141306
-0.0146348
-0.0149939
-0.0152609
-0.0153984
-0.0149439
-0.013176
0.0240006
0.0248455
0.0242654
0.0229103
0.0213525
0.0196637
0.0178019
0.0157591
0.0135503
0.0111988
0.00873446
0.00619451
0.00362226
0.00106492
-0.00142934
-0.00381451
-0.00604971
-0.00810162
-0.00994604
-0.0115685
-0.0129637
-0.0141349
-0.0150915
-0.015847
-0.0164183
-0.0168368
-0.0171572
-0.017332
-0.0168701
-0.0150676
0.0253563
0.0262807
0.0256361
0.0241358
0.0224104
0.0205486
0.018509
0.0162831
0.0138871
0.011346
0.00869193
0.00596374
0.00320652
0.000469008
-0.0021993
-0.00475129
-0.00714519
-0.00934698
-0.0113319
-0.013085
-0.0146009
-0.0158824
-0.0169391
-0.0177844
-0.0184357
-0.0189261
-0.0193123
-0.0195359
-0.0190748
-0.0172415
0.0269872
0.0279709
0.0272437
0.0255675
0.0236402
0.0215736
0.0193254
0.0168859
0.0142726
0.011513
0.008641
0.00569775
0.00273003
-0.000211858
-0.00307717
-0.0058178
-0.00839123
-0.0107629
-0.0129076
-0.01481
-0.0164645
-0.017874
-0.0190478
-0.0199993
-0.0207465
-0.0213248
-0.0217921
-0.0220787
-0.0216307
-0.0197747
0.0290113
0.0300163
0.0291681
0.02727
0.0250968
0.0227826
0.0202838
0.0175894
0.0147187
0.0117017
0.00857484
0.00538144
0.00217017
-0.00100717
-0.00409868
-0.00705549
-0.0098346
-0.0124011
-0.0147295
-0.0168045
-0.0186202
-0.0201794
-0.0214916
-0.02257
-0.0234333
-0.0241194
-0.0246869
-0.0250551
-0.0246381
-0.0227748
0.0315764
0.0325556
0.0315236
0.0293404
0.0268594
0.0242374
0.0214292
0.0184225
0.0152389
0.0119115
0.00847975
0.00498924
0.00149067
-0.00196277
-0.00531831
-0.0085267
-0.0115449
-0.014338
-0.0168807
-0.0191577
-0.0211633
-0.0229001
-0.0243775
-0.0256089
-0.0266138
-0.0274323
-0.0281248
-0.0285988
-0.02824
-0.0263971
0.0349569
0.0358027
0.0344863
0.0319252
0.0290474
0.0260296
0.0228256
0.0194232
0.0158472
0.0121344
0.00832784
0.00447579
0.00063083
-0.00315283
-0.00682223
-0.0103285
-0.0136294
-0.0166909
-0.0194883
-0.0220067
-0.0242406
-0.0261926
-0.0278719
-0.0292917
-0.030472
-0.0314547
-0.0323018
-0.0329129
-0.0326531
-0.0308808
0.0395953
0.0400931
0.0383102
0.035228
0.0318215
0.0282779
0.0245518
0.0206332
0.0165511
0.0123474
0.00806899
0.00376728
-0.000503541
-0.00468898
-0.00873703
-0.0126006
-0.0162397
-0.0196224
-0.0227258
-0.0255363
-0.0280491
-0.0302669
-0.0321985
-0.0338569
-0.0352621
-0.0364567
-0.0375021
-0.0382976
-0.038213
-0.0366173
0.0463932
0.0461584
0.0436156
0.0398068
0.0356662
0.0313712
0.0268876
0.0222194
0.0174076
0.0125039
0.00756276
0.00263991
-0.00220891
-0.00693042
-0.0114759
-0.0158026
-0.0198752
-0.0236666
-0.0271564
-0.0303322
-0.0331926
-0.0357468
-0.0379928
-0.0399425
-0.0416151
-0.04305
-0.0443035
-0.0452913
-0.0454606
-0.0442368
0.0583545
0.0563993
0.0522362
0.0471346
0.0417684
0.036235
0.0305282
0.0246836
0.0187606
0.0128209
0.00692383
0.00112439
-0.00452732
-0.00998742
-0.0152189
-0.0201917
-0.0248818
-0.029271
-0.0333476
-0.0371044
-0.0405334
-0.0436261
-0.0463984
-0.048855
-0.0510044
-0.0528715
-0.0545028
-0.0558829
-0.0566698
-0.0562176
0.00483156
0.00583498
0.00760252
0.00902547
0.0102359
0.0113718
0.0124641
0.013521
0.0145518
0.0155662
0.0165727
0.0175798
0.0185968
0.0196334
0.0206994
0.0218072
0.0229712
0.0242096
0.0255434
0.0269967
0.028601
0.0303991
0.0324436
0.0348068
0.037587
0.0409309
0.0450367
0.0501561
0.0565001
0.0648229
0.00919515
0.0102306
0.0114065
0.0124003
0.0132993
0.0141638
0.0150049
0.0158272
0.0166379
0.0174452
0.0182571
0.0190818
0.0199279
0.0208047
0.0217223
0.022693
0.0237315
0.0248558
0.0260874
0.0274534
0.0289887
0.0307399
0.0327684
0.0351587
0.03803
0.0415575
0.0459931
0.0517001
0.0591649
0.0691922
0.011627
0.0125535
0.0134558
0.0142695
0.0150639
0.0158564
0.0166443
0.0174289
0.0182153
0.0190096
0.0198182
0.020648
0.0215068
0.0224032
0.0233472
0.0243511
0.0254297
0.0266012
0.0278883
0.0293197
0.0309333
0.032779
0.0349242
0.0374624
0.0405264
0.0443085
0.0490928
0.0552987
0.0635787
0.0748311
0.0137627
0.0145797
0.0153669
0.0161
0.0168294
0.0175659
0.0183091
0.019062
0.01983
0.0206188
0.0214345
0.0222838
0.0231742
0.0241145
0.0251149
0.0261879
0.0273487
0.0286164
0.0300147
0.0315742
0.0333348
0.0353497
0.0376906
0.0404566
0.043788
0.0478866
0.0530506
0.0597131
0.0686157
0.0806906
0.0157571
0.0164796
0.0171758
0.0178366
0.0185049
0.0191916
0.0198978
0.0206266
0.0213826
0.022171
0.0229975
0.0238684
0.0247912
0.0257748
0.0268297
0.0279689
0.0292083
0.0305679
0.0320728
0.0337553
0.0356576
0.0378357
0.0403648
0.0433488
0.0469335
0.0513279
0.0568393
0.0639093
0.0733615
0.0861767
0.01758
0.0182181
0.0188364
0.0194361
0.0200559
0.0207055
0.0213858
0.0220995
0.0228506
0.0236438
0.0244844
0.0253787
0.0263341
0.0273594
0.0284654
0.0296656
0.0309763
0.0324184
0.034018
0.035809
0.0378353
0.0401551
0.0428469
0.0460181
0.0498193
0.0544655
0.0602729
0.0676945
0.0776341
0.0911505
0.0192266
0.0197889
0.0203407
0.0208903
0.021472
0.0220937
0.0227558
0.0234607
0.0242118
0.0250136
0.025871
0.02679
0.027778
0.0288438
0.0299985
0.0312556
0.0326321
0.0341493
0.0358344
0.0377221
0.039858
0.042302
0.0451348
0.048467
0.0524527
0.0573122
0.0633697
0.0710905
0.0814443
0.0955829
0.0206908
0.0211848
0.0216795
0.022188
0.0227397
0.0233403
0.0239899
0.0246905
0.025445
0.0262574
0.0271325
0.028076
0.0290952
0.030199
0.0313984
0.0327074
0.0341432
0.0357277
0.0374887
0.0394618
0.0416937
0.0442457
0.0472003
0.0506703
0.0548128
0.0598524
0.0661203
0.0740927
0.0847868
0.0994478
0.0219636
0.0223963
0.0228425
0.0233178
0.0238461
0.0244311
0.0250725
0.0257717
0.0265315
0.0273552
0.0282475
0.0292138
0.0302615
0.0313994
0.0326386
0.0339932
0.0354808
0.0371237
0.0389501
0.0409965
0.0433102
0.0459539
0.0490112
0.0525967
0.0568701
0.0620589
0.0685007
0.0766807
0.087647
0.10273
0.0230378
0.0234168
0.0238227
0.0242719
0.0247823
0.025356
0.0259922
0.0266919
0.0274576
0.0282922
0.0292002
0.0301868
0.0312593
0.0324265
0.0336997
0.0350931
0.0366244
0.0383162
0.0401972
0.0423044
0.0446859
0.0474049
0.0505463
0.0542261
0.0586056
0.063915
0.0704967
0.0788435
0.0900183
0.105439
0.0239108
0.0242443
0.0246179
0.0250471
0.0255443
0.0261099
0.026743
0.0274442
0.0282156
0.0290599
0.0299813
0.0309851
0.0320782
0.0332696
0.0345706
0.0359955
0.0375622
0.0392935
0.0412184
0.0433743
0.0458097
0.0485886
0.0517967
0.0555507
0.0600136
0.0654173
0.0721081
0.0805842
0.0919113
0.107602
0.0245852
0.024882
0.0252311
0.0256456
0.0261333
0.0266934
0.0273247
0.0280277
0.0288041
0.0296564
0.0305886
0.0316059
0.0327152
0.0339255
0.0352481
0.0366974
0.0382913
0.0400529
0.0420115
0.0442045
0.0466811
0.0495054
0.0527638
0.0565739
0.0610995
0.0665737
0.073346
0.0819181
0.0933509
0.109249
0.0250688
0.0253383
0.02567
0.0260745
0.0265558
0.0271123
0.0277427
0.0284474
0.0292276
0.0300859
0.0310261
0.0320533
0.0331744
0.0343984
0.0357366
0.0372033
0.0388168
0.0406001
0.0425827
0.0448022
0.047308
0.0501646
0.0534587
0.0573083
0.0618781
0.0674018
0.0742314
0.0828697
0.094371
0.110421
0.0253743
0.0256261
0.0259468
0.0263452
0.0268226
0.0273771
0.0280071
0.028713
0.0294958
0.0303581
0.0313035
0.0323371
0.0334658
0.0346986
0.0360467
0.0375246
0.0391505
0.0409476
0.0429454
0.0451817
0.047706
0.050583
0.0538996
0.0577742
0.0623717
0.0679265
0.0747921
0.0834709
0.0950078
0.111168
0.0255178
0.0257611
0.0260766
0.0264721
0.0269479
0.0275014
0.0281314
0.0288379
0.029622
0.0304862
0.0314342
0.0324709
0.0336033
0.0348402
0.0361931
0.0376764
0.0393083
0.041112
0.043117
0.0453614
0.0478945
0.0507813
0.0541087
0.0579952
0.062606
0.0681754
0.0750584
0.0837557
0.095303
0.11153
0.025518
0.0257612
0.0260768
0.0264723
0.026948
0.0275016
0.0281315
0.028838
0.0296222
0.0304864
0.0314343
0.032471
0.0336034
0.0348403
0.0361932
0.0376765
0.0393084
0.0411121
0.0431171
0.0453615
0.0478946
0.0507814
0.0541088
0.0579953
0.062606
0.0681754
0.0750584
0.0837557
0.095303
0.11153
0.0253747
0.0256265
0.0259473
0.0263456
0.0268231
0.0273775
0.0280076
0.0287134
0.0294962
0.0303585
0.0313038
0.0323374
0.0334662
0.0346989
0.036047
0.0375249
0.0391508
0.0409479
0.0429456
0.0451819
0.0477062
0.0505832
0.0538998
0.0577744
0.062372
0.0679266
0.0747922
0.083471
0.0950079
0.111168
0.0250695
0.0253391
0.0256708
0.0260752
0.0265565
0.027113
0.0277434
0.028448
0.0292282
0.0300865
0.0310267
0.0320539
0.033175
0.034399
0.0357371
0.0372038
0.0388173
0.0406005
0.042583
0.0448026
0.0473083
0.0501649
0.0534591
0.0573087
0.0618784
0.0674021
0.0742316
0.0828698
0.0943713
0.110422
0.0245862
0.024883
0.0252321
0.0256466
0.0261343
0.0266944
0.0273257
0.0280287
0.028805
0.0296573
0.0305894
0.0316067
0.032716
0.0339263
0.0352488
0.036698
0.0382919
0.0400535
0.042012
0.044205
0.0466815
0.0495059
0.0527643
0.0565744
0.0610999
0.0665742
0.0733464
0.0819183
0.0933513
0.109249
0.0239121
0.0242456
0.0246192
0.0250484
0.0255455
0.0261111
0.0267442
0.0274454
0.0282167
0.029061
0.0299824
0.0309861
0.0320791
0.0332705
0.0345715
0.0359963
0.0375629
0.0392942
0.0412191
0.0433749
0.0458104
0.0485892
0.0517973
0.0555513
0.0600142
0.0654179
0.0721086
0.0805847
0.0919118
0.107602
0.0230394
0.0234184
0.0238243
0.0242734
0.0247838
0.0253575
0.0259936
0.0266933
0.0274589
0.0282935
0.0292014
0.030188
0.0312604
0.0324276
0.0337007
0.035094
0.0366253
0.038317
0.040198
0.0423052
0.0446866
0.0474056
0.050547
0.0542267
0.0586062
0.0639159
0.0704976
0.0788443
0.0900191
0.10544
0.0219653
0.0223981
0.0228443
0.0233196
0.0238478
0.0244328
0.0250741
0.0257733
0.026533
0.0273567
0.0282489
0.0292152
0.0302628
0.0314006
0.0326397
0.0339943
0.0354819
0.0371247
0.0389511
0.0409974
0.0433111
0.0459547
0.0490119
0.0525974
0.0568708
0.06206
0.0685019
0.0766818
0.0876479
0.102731
0.0206928
0.0211868
0.0216815
0.02219
0.0227416
0.0233422
0.0239918
0.0246922
0.0254467
0.0262591
0.0271341
0.0280775
0.0290966
0.0302003
0.0313997
0.0327087
0.0341445
0.0357289
0.0374898
0.0394629
0.0416947
0.0442466
0.0472011
0.050671
0.0548137
0.0598537
0.0661219
0.0740941
0.0847878
0.0994481
0.0192288
0.0197911
0.0203428
0.0208924
0.0214741
0.0220957
0.0227578
0.0234626
0.0242137
0.0250154
0.0258727
0.0267917
0.0277796
0.0288453
0.03
0.031257
0.0326335
0.0341506
0.0358356
0.0377233
0.0398591
0.042303
0.0451357
0.0484679
0.0524538
0.0573138
0.0633716
0.0710922
0.0814453
0.0955832
0.0175824
0.0182205
0.0188387
0.0194383
0.0200581
0.0207076
0.0213879
0.0221015
0.0228526
0.0236457
0.0244863
0.0253805
0.0263358
0.027361
0.028467
0.0296671
0.0309778
0.0324199
0.0340194
0.0358103
0.0378365
0.0401562
0.0428479
0.0460191
0.0498206
0.0544674
0.0602752
0.0676964
0.077635
0.0911505
0.0157596
0.0164821
0.0171782
0.0178389
0.0185072
0.0191939
0.0199
0.0206288
0.0213848
0.0221731
0.0229995
0.0238703
0.0247931
0.0257766
0.0268314
0.0279705
0.0292099
0.0305695
0.0320743
0.0337568
0.035659
0.0378369
0.0403659
0.04335
0.0469351
0.0513301
0.0568418
0.0639114
0.0733623
0.0861764
0.0137652
0.0145822
0.0153693
0.0161025
0.0168319
0.0175683
0.0183115
0.0190643
0.0198322
0.020621
0.0214366
0.0222859
0.0231762
0.0241164
0.0251167
0.0261897
0.0273504
0.0286181
0.0300163
0.0315758
0.0333363
0.0353511
0.0376919
0.0404581
0.0437898
0.047889
0.0530532
0.0597151
0.0686164
0.0806902
0.0116295
0.012556
0.0134583
0.014272
0.0150664
0.0158589
0.0166467
0.0174313
0.0182177
0.0190119
0.0198205
0.0206502
0.0215089
0.0224052
0.0233492
0.024353
0.0254315
0.026603
0.02789
0.0293214
0.0309349
0.0327805
0.0349257
0.0374642
0.0405285
0.044311
0.0490953
0.0553003
0.0635791
0.0748304
0.00919757
0.0102331
0.011409
0.0124029
0.0133019
0.0141663
0.0150074
0.0158297
0.0166403
0.0174476
0.0182595
0.0190842
0.0199302
0.0208068
0.0217244
0.022695
0.0237334
0.0248577
0.0260893
0.0274551
0.0289904
0.0307416
0.0327701
0.0351607
0.0380323
0.0415599
0.0459951
0.0517011
0.0591649
0.0691916
0.00483402
0.00583758
0.00760511
0.00902801
0.0102384
0.0113742
0.0124666
0.0135234
0.0145542
0.0155685
0.0165749
0.0175821
0.018599
0.0196355
0.0207015
0.0218091
0.0229731
0.0242114
0.0255451
0.0269983
0.0286027
0.0304007
0.0324453
0.0348089
0.0375892
0.0409328
0.045038
0.0501563
0.0564998
0.0648224
0.0583543
0.0563993
0.052236
0.0471342
0.0417679
0.0362345
0.0305277
0.024683
0.0187597
0.0128198
0.00692235
0.00112256
-0.0045295
-0.00998994
-0.0152217
-0.0201947
-0.0248851
-0.0292745
-0.0333513
-0.0371082
-0.0405372
-0.04363
-0.0464023
-0.0488588
-0.0510082
-0.0528752
-0.0545066
-0.0558867
-0.0566739
-0.0562218
0.0463927
0.0461577
0.0436149
0.0398064
0.0356659
0.0313708
0.026887
0.0222186
0.0174065
0.0125026
0.00756109
0.00263794
-0.00221117
-0.00693295
-0.0114787
-0.0158056
-0.0198785
-0.02367
-0.0271601
-0.030336
-0.0331964
-0.0357508
-0.0379967
-0.0399464
-0.0416191
-0.0430538
-0.0443073
-0.045295
-0.0454643
-0.0442404
0.0395953
0.0400932
0.0383104
0.0352283
0.0318216
0.0282778
0.0245514
0.0206324
0.01655
0.0123459
0.00806723
0.00376525
-0.000505813
-0.00469148
-0.00873975
-0.0126036
-0.0162428
-0.0196258
-0.0227295
-0.0255402
-0.0280531
-0.0302711
-0.0322028
-0.0338612
-0.0352664
-0.0364609
-0.0375062
-0.0383015
-0.0382167
-0.0366207
0.0349577
0.0358036
0.034487
0.0319256
0.0290474
0.0260292
0.0228248
0.019422
0.0158457
0.0121327
0.00832587
0.00447365
0.000628511
-0.00315532
-0.0068249
-0.0103314
-0.0136325
-0.0166942
-0.0194919
-0.0220106
-0.0242448
-0.026197
-0.0278765
-0.0292965
-0.0304768
-0.0314595
-0.0323064
-0.0329172
-0.0326569
-0.0308841
0.0315778
0.0325567
0.0315244
0.0293405
0.026859
0.0242365
0.0214279
0.0184209
0.015237
0.0119094
0.00847755
0.00498694
0.00148826
-0.00196529
-0.00532097
-0.00852953
-0.0115479
-0.0143413
-0.0168843
-0.0191616
-0.0211674
-0.0229045
-0.0243822
-0.0256139
-0.0266189
-0.0274373
-0.0281298
-0.0286035
-0.0282442
-0.0264007
0.029013
0.0300175
0.0291686
0.0272698
0.0250961
0.0227813
0.0202822
0.0175875
0.0147165
0.0116993
0.00857243
0.00537898
0.00216766
-0.00100974
-0.00410135
-0.00705831
-0.00983761
-0.0124043
-0.014733
-0.0168083
-0.0186243
-0.0201838
-0.0214962
-0.0225748
-0.0234384
-0.0241245
-0.024692
-0.02506
-0.0246427
-0.0227789
0.0269888
0.0279719
0.027244
0.0255673
0.0236393
0.0215722
0.0193236
0.0168838
0.0142703
0.0115105
0.00863848
0.00569519
0.00272746
-0.000214467
-0.00307985
-0.00582059
-0.00839419
-0.010766
-0.012911
-0.0148137
-0.0164685
-0.0178782
-0.0190522
-0.0200039
-0.0207513
-0.0213297
-0.0217971
-0.0220836
-0.0216355
-0.0197793
0.0253576
0.0262815
0.0256364
0.0241355
0.0224095
0.0205472
0.0185072
0.016281
0.0138848
0.0113436
0.00868939
0.00596117
0.00320394
0.000466409
-0.00220195
-0.00475402
-0.00714806
-0.00935002
-0.0113351
-0.0130885
-0.0146046
-0.0158863
-0.0169433
-0.0177887
-0.0184402
-0.0189308
-0.0193171
-0.0195407
-0.0190796
-0.0172463
0.0240019
0.0248465
0.024266
0.0229102
0.0213518
0.0196625
0.0178003
0.0157571
0.0135481
0.0111964
0.00873199
0.00619199
0.00361974
0.00106239
-0.00143191
-0.00381714
-0.00605244
-0.00810449
-0.00994908
-0.0115717
-0.0129671
-0.0141385
-0.0150953
-0.015851
-0.0164224
-0.0168411
-0.0171618
-0.0173366
-0.0168749
-0.0150725
0.0228474
0.023599
0.0230673
0.0218442
0.0204267
0.0188855
0.0171778
0.0152946
0.0132501
0.0110656
0.0087693
0.00639669
0.00398941
0.00159312
-0.0007454
-0.00298129
-0.00507466
-0.00699298
-0.00871267
-0.0102197
-0.0115092
-0.0125844
-0.013455
-0.0141343
-0.0146388
-0.014998
-0.0152651
-0.0154029
-0.0149486
-0.0131809
0.0218433
0.0224906
0.0219955
0.0208967
0.0196054
0.0181914
0.01662
0.0148794
0.0129818
0.0109472
0.00880224
0.00658068
0.00432259
0.00207212
-0.000125289
-0.00222598
-0.00419107
-0.00598887
-0.00759648
-0.00900035
-0.010196
-0.0111868
-0.0119824
-0.0125962
-0.0130443
-0.0133543
-0.0135777
-0.0136871
-0.0132461
-0.0115148
0.020948
0.0214936
0.0210253
0.0200328
0.0188643
0.0175613
0.0161113
0.0144998
0.0127356
0.0108375
0.00883059
0.00674718
0.00462574
0.00250893
0.000440831
-0.00153611
-0.00338404
-0.00507215
-0.00657822
-0.00788922
-0.00900096
-0.009917
-0.010647
-0.0112044
-0.0116046
-0.0118739
-0.012062
-0.0121499
-0.0117261
-0.0100318
0.0201328
0.0205763
0.0201338
0.0192349
0.0181799
0.0169798
0.015639
0.0141459
0.0125048
0.0107326
0.00885343
0.00689802
0.0049033
0.00291045
0.000962193
-0.000900247
-0.00264008
-0.00422736
-0.00564057
-0.00686717
-0.00790328
-0.00875261
-0.0094248
-0.00993308
-0.0102928
-0.0105283
-0.0106879
-0.0107599
-0.0103566
-0.00869963
0.0193778
0.0197166
0.0193014
0.0184889
0.0175334
0.0164363
0.0151927
0.0138092
0.0122833
0.010629
0.0088695
0.00703413
0.00515832
0.00328178
0.00144584
-0.000309514
-0.00194855
-0.00344221
-0.00476965
-0.00591885
-0.0068862
-0.00767552
-0.00829639
-0.00876195
-0.00908716
-0.00929497
-0.00943161
-0.00949255
-0.00911194
-0.00749317
0.0186611
0.0189021
0.0185158
0.0177795
0.0169127
0.0159188
0.0147658
0.0134833
0.012066
0.0105235
0.00887734
0.00715586
0.00539294
0.00362676
0.00189726
0.000243171
-0.00130086
-0.00270667
-0.00395412
-0.00503165
-0.00593593
-0.00667083
-0.00724587
-0.00767402
-0.00796997
-0.00815511
-0.00827392
-0.00832801
-0.00797231
-0.00639333
0.0179654
0.0181191
0.0177623
0.017098
0.0163125
0.0154127
0.0143523
0.0131622
0.0118483
0.0104128
0.00887536
0.00726316
0.0056086
0.00394833
0.00232086
0.000763621
-0.000689878
-0.00201238
-0.00318443
-0.00419494
-0.00504082
-0.00572601
-0.00625989
-0.0066553
-0.00692647
-0.00709356
-0.00719915
-0.0072501
-0.00692139
-0.00538545
0.0172806
0.0173547
0.0170291
0.0164346
0.0157235
0.0149076
0.0139453
0.0128412
0.0116257
0.0102939
0.00886188
0.00735565
0.00580628
0.00424882
0.00272026
0.00125669
-0.000109546
-0.00135214
-0.00245235
-0.00339955
-0.00419089
-0.00483031
-0.0053271
-0.00569384
-0.00594438
-0.00609768
-0.00619434
-0.00624575
-0.0059462
-0.00445872
0.016599
0.0165974
0.0163039
0.0157777
0.0151382
0.0144003
0.013535
0.0125165
0.0113945
0.0101639
0.0088351
0.00743275
0.00598659
0.00453004
0.00309848
0.00172658
0.000445445
-0.000719619
-0.0017506
-0.00263736
-0.00337729
-0.00397434
-0.0044376
-0.0047794
-0.00501327
-0.00515695
-0.00524896
-0.00530445
-0.00503645
-0.00360555
0.0159136
0.0158374
0.0155777
0.0151184
0.0145492
0.0138866
0.0131124
0.0121847
0.0111507
0.0100196
0.0087931
0.00749365
0.00614985
0.00479344
0.00345811
0.002177
0.000979861
-0.000109059
-0.00107256
-0.00190102
-0.00259208
-0.00314969
-0.00358275
-0.00390327
-0.00412434
-0.00426265
-0.00435445
-0.00441787
-0.00418414
-0.00282116
0.0152156
0.0150677
0.0148434
0.0144501
0.0139512
0.0133598
0.0126696
0.0118413
0.0108914
0.00985814
0.00873386
0.00753735
0.0062961
0.00504017
0.00380143
0.00261131
0.00149813
0.000484907
-0.000412056
-0.0011837
-0.00182796
-0.00234876
-0.00275478
-0.00305769
-0.00327006
-0.00340746
-0.00350392
-0.00357957
-0.0033834
-0.00210331
0.0144959
0.0142809
0.0140937
0.0137656
0.0133361
0.0128159
0.0122056
0.0114784
0.0106143
0.00967671
0.00865521
0.00756262
0.00642514
0.00527113
0.00413048
0.00303272
0.00200449
0.00106745
0.000236871
-0.000478868
-0.00107801
-0.00156451
-0.00194675
-0.00223597
-0.00244415
-0.00258573
-0.00269219
-0.00278492
-0.00263036
-0.00145201
0.0137454
0.01347
0.0133223
0.0130586
0.0126978
0.0122494
0.0117177
0.0110886
0.0103168
0.00947212
0.0085546
0.00756796
0.00653651
0.005487
0.00444712
0.00344425
0.00250311
0.00164373
0.000880149
0.000219931
-0.000335573
-0.000790301
-0.00115231
-0.00143227
-0.00164143
-0.00179318
-0.00191597
-0.00203131
-0.00192317
-0.000869253
0.0129526
0.0126273
0.0125219
0.0123233
0.0120316
0.0116567
0.0112025
0.0106651
0.00999558
0.00924074
0.00842908
0.00755149
0.00662944
0.00568824
0.00475313
0.003849
0.0029983
0.00221909
0.0015239
0.000919258
0.000406016
-1.97361e-05
-0.000365598
-0.000641537
-0.000857951
-0.00102673
-0.00117349
-0.00131805
-0.00126214
-0.000358592
0.0121021
0.0117436
0.0116851
0.0115533
0.0113317
0.0110317
0.0106551
0.010205
0.00964535
0.00898095
0.00827609
0.00751123
0.00670301
0.00587516
0.00505019
0.00425007
0.00349445
0.00279898
0.00217426
0.00162554
0.00115304
0.000752914
0.00041823
0.000139951
-9.11788e-05
-0.00028521
-0.000464556
-0.000645872
-0.000649607
7.5282e-05
0.0111737
0.0108063
0.0108007
0.0107391
0.0105911
0.0103679
0.0100707
0.00970751
0.0092584
0.00869077
0.00809302
0.00744513
0.00675618
0.00604794
0.00533988
0.00465037
0.00399565
0.00338831
0.00283658
0.00234405
0.00191019
0.00153138
0.00120173
0.000913397
0.000658688
0.000429541
0.000207701
-1.92145e-05
-9.08e-05
0.000427461
0.0101486
0.00981165
0.00986338
0.00987414
0.00980479
0.00966222
0.00944711
0.00917185
0.00882937
0.00836627
0.00787557
0.00734966
0.00678649
0.0062056
0.00562297
0.00505267
0.00450656
0.00399328
0.00351792
0.00308182
0.00268354
0.00232093
0.00198886
0.00168097
0.00139182
0.00111607
0.000840245
0.000558241
0.000409252
0.000694568
0.00899453
0.00878682
0.00891044
0.00898332
0.00898862
0.00892575
0.00879076
0.00859869
0.0083535
0.00800129
0.00761392
0.00721405
0.00678486
0.00634278
0.00589967
0.00546387
0.0050411
0.00463421
0.00424358
0.00386709
0.00350197
0.0031507
0.00280682
0.00246629
0.00212738
0.00178874
0.00144283
0.0010918
0.000848675
0.000876453
0.00751427
0.0076752
0.00796482
0.00809806
0.00816027
0.00816374
0.00809846
0.00797639
0.00781343
0.0075766
0.00729143
0.00702209
0.00674011
0.00645673
0.00617783
0.00590335
0.0056297
0.00535104
0.00506057
0.0047521
0.00442216
0.0040715
0.0036997
0.00330628
0.00289451
0.00246871
0.00202868
0.00158477
0.00121901
0.000970281