/*--------------------------------*- C++ -*----------------------------------*\
  =========                 |
  \\      /  F ield         | OpenFOAM: The Open Source CFD Toolbox
   \\    /   O peration     | Website:  https://openfoam.org
    \\  /    A nd           | Version:  12
     \\/     M anipulation  |
\*---------------------------------------------------------------------------*/
FoamFile
{
    format      ascii;
    class       volScalarField;
    location    "260";
    object      pPrime2Mean;
}
// * * * * * * * * * * * * * * * * * * * * * * * * * * * * * * * * * * * * * //

dimensions      [0 4 -4 0 0 0 0];

internalField   nonuniform List<scalar> 
6750
(
0.00502356
0.00501618
0.00500681
0.0049985
0.00498949
0.00502594
0.00501571
0.00499964
0.00498058
0.00496059
0.00505011
0.00503742
0.00501659
0.00498991
0.00496125
0.00509508
0.00508156
0.00505913
0.00502994
0.00499865
0.00515815
0.00514576
0.00512514
0.005098
0.00506894
0.00523487
0.00522534
0.00520936
0.00518787
0.00516474
0.00531962
0.00531427
0.00530503
0.00529183
0.00527749
0.00540648
0.00540615
0.00540501
0.00540187
0.00539827
0.00548992
0.00549497
0.00550252
0.00551026
0.00551843
0.00556527
0.00557561
0.00559176
0.0056103
0.00563027
0.00562903
0.00564419
0.00566818
0.00569665
0.00572758
0.00567893
0.00569814
0.00572871
0.00576558
0.00580586
0.0057139
0.00573619
0.00577174
0.00581501
0.00586248
0.00573391
0.00575819
0.00579695
0.00584438
0.00589659
0.00573977
0.00576495
0.00580514
0.00585446
0.00590886
0.00573282
0.00575787
0.00579786
0.00584695
0.00590109
0.00571305
0.00573693
0.00577508
0.0058218
0.00587324
0.00567924
0.00570086
0.0057354
0.0057775
0.0058237
0.00563079
0.00564911
0.00567832
0.0057136
0.00575212
0.00556795
0.00558203
0.00560437
0.00563091
0.00565969
0.00549198
0.00550111
0.0055154
0.00553177
0.00554932
0.00540535
0.00540911
0.00541469
0.00542012
0.00542572
0.0053117
0.00531007
0.00530692
0.00530144
0.00529525
0.00521584
0.00520921
0.00519799
0.00518252
0.00516565
0.00512337
0.00511261
0.00509475
0.00507107
0.00504555
0.00504029
0.00502673
0.00500433
0.00497514
0.00494384
0.00497225
0.00495763
0.00493353
0.00490242
0.00486908
0.00492371
0.00490999
0.00488759
0.00485911
0.00482857
0.00489738
0.0048862
0.00486871
0.00484796
0.00482624
0.00489412
0.00488598
0.00487545
0.00486583
0.00485566
0.00495816
0.00492012
0.00484741
0.00474448
0.00461317
0.00445486
0.00427007
0.0040593
0.00382461
0.00356912
0.00329575
0.0030113
0.00272187
0.00243454
0.0021564
0.00189378
0.00165177
0.00143384
0.00124163
0.00107494
0.000932181
0.000813038
0.000713546
0.000631042
0.000563095
0.000507377
0.000461956
0.000425042
0.000395349
0.000376413
0.00496372
0.00490067
0.00480769
0.00468794
0.00454251
0.00437232
0.00417852
0.00396283
0.00372805
0.0034773
0.00321302
0.0029421
0.00266923
0.00240013
0.00214036
0.00189481
0.00166741
0.00146087
0.00127667
0.00111521
0.00097614
0.000856396
0.000755586
0.000671127
0.000600805
0.000542724
0.000495097
0.000456093
0.000423744
0.000398704
0.00494652
0.00486349
0.00475459
0.0046228
0.00446791
0.00429079
0.0040927
0.00387573
0.00364302
0.00339723
0.00314172
0.0028826
0.00262375
0.00236988
0.00212541
0.00189411
0.00167899
0.00148222
0.00130503
0.00114779
0.00101014
0.00089118
0.000789514
0.000703397
0.000631036
0.000570701
0.000520744
0.000479445
0.000445395
0.000419257
0.00491805
0.00482193
0.00470173
0.00456145
0.00440096
0.00422052
0.00402131
0.00380556
0.00357636
0.00333566
0.00308807
0.00283841
0.00259018
0.0023475
0.00211408
0.00189309
0.00168701
0.00149766
0.00132612
0.00117276
0.00103737
0.000919388
0.000817642
0.000730723
0.000657087
0.000595115
0.000543092
0.000499399
0.000463195
0.000437685
0.00488597
0.00478069
0.00465198
0.00450522
0.00434107
0.00415924
0.00396074
0.00374761
0.00352261
0.00328729
0.00304682
0.00280487
0.00256488
0.00233058
0.00210531
0.00189192
0.00169267
0.00150919
0.00134247
0.00119285
0.00106015
0.000943789
0.000842777
0.000755864
0.000681631
0.000618529
0.000564843
0.000518841
0.000480702
0.000455784
0.0048553
0.00474307
0.00460803
0.00445633
0.00428949
0.00410741
0.00391054
0.00370067
0.00347995
0.00324989
0.0030155
0.00277976
0.00254604
0.00231787
0.00209847
0.00189059
0.00169643
0.00151756
0.00135491
0.00120876
0.00107887
0.000964565
0.000864856
0.000778517
0.00070417
0.000640346
0.000585319
0.000537451
0.00049772
0.000473522
0.00482919
0.00471156
0.00457156
0.00441625
0.00424751
0.00406566
0.00387081
0.00366431
0.00344747
0.0032222
0.00299279
0.00276182
0.00253266
0.00230875
0.00209333
0.00188921
0.00169866
0.00152328
0.00136396
0.0012209
0.00109374
0.000981671
0.000883578
0.000798168
0.000724056
0.00065984
0.000603847
0.000554555
0.000513579
0.000490231
0.0048102
0.0046883
0.00454431
0.0043861
0.00421625
0.00403469
0.00384186
0.00363841
0.00342481
0.00320359
0.00297792
0.00275032
0.00252413
0.00230282
0.00208973
0.00188787
0.00169963
0.00152671
0.00136997
0.00122955
0.00110492
0.000995087
0.00089876
0.000814517
0.000740956
0.000676588
0.000619967
0.000569716
0.000527806
0.000505285
0.00480067
0.00467526
0.00452774
0.00436698
0.00419627
0.00401508
0.00382397
0.00362293
0.00341189
0.00319367
0.00297044
0.00274479
0.00252005
0.00229979
0.00208757
0.00188661
0.00169951
0.00152807
0.00137318
0.00123488
0.00111249
0.00100478
0.000910273
0.000827378
0.000754632
0.000690481
0.000633591
0.00058264
0.000540026
0.000518178
0.0048029
0.00467437
0.00452339
0.00436006
0.00418839
0.00400759
0.00381758
0.00361803
0.00340878
0.00319227
0.00297013
0.00274497
0.00252018
0.00229951
0.00208677
0.00188544
0.00169837
0.00152748
0.0013737
0.00123698
0.00111645
0.00101071
0.000918011
0.000836613
0.000764865
0.000701294
0.000644446
0.000593023
0.000549869
0.000528466
0.00481924
0.00468763
0.00453291
0.00436657
0.00419348
0.00401267
0.00382317
0.00362411
0.00341565
0.00319948
0.00297698
0.00275081
0.00252445
0.0023019
0.00208727
0.00188436
0.00169625
0.001525
0.00137158
0.00123586
0.00111681
0.0010128
0.000921876
0.000842071
0.000771571
0.000708844
0.000652258
0.000600555
0.000556992
0.000535773
0.00485229
0.00471723
0.00455815
0.004388
0.00421279
0.00403129
0.00384138
0.00364176
0.0034329
0.00321558
0.00299118
0.0027624
0.0025329
0.00230697
0.00208908
0.00188336
0.00169314
0.00152062
0.00136681
0.0012315
0.00111351
0.001011
0.000921783
0.000843659
0.00077458
0.000712928
0.000656748
0.000604929
0.0005611
0.000539814
0.00490501
0.00476579
0.00460142
0.00442643
0.00424824
0.00406469
0.00387315
0.00367189
0.00346114
0.00324105
0.00301306
0.00277997
0.00254566
0.00231478
0.00209222
0.00188243
0.001689
0.00151429
0.00135932
0.00122383
0.00110649
0.00100523
0.000917643
0.000841239
0.000773688
0.00071315
0.000657614
0.000605881
0.000561967
0.000540399
0.00498104
0.00483644
0.00466556
0.00448427
0.00430163
0.00411465
0.00392001
0.00371569
0.00350129
0.00327663
0.00304317
0.00280388
0.00256296
0.00232548
0.00209674
0.00188157
0.00168379
0.00150592
0.00134902
0.00121278
0.00109568
0.000995439
0.000909366
0.000834654
0.000768734
0.000709414
0.000654663
0.00060325
0.000559492
0.000537487
0.00508473
0.00493317
0.00475416
0.00456473
0.0043759
0.00418366
0.00398399
0.00377481
0.00355467
0.00332331
0.00308223
0.00283463
0.00258512
0.00233924
0.00210272
0.00188076
0.00167743
0.0014954
0.00133579
0.00119821
0.00108097
0.000981518
0.000896834
0.000823802
0.000759531
0.000701545
0.000647798
0.00059701
0.000553735
0.000531247
0.00522157
0.00506114
0.00487207
0.00467226
0.004475
0.00427507
0.00406813
0.00385157
0.00362308
0.0033824
0.00313115
0.00287282
0.00261251
0.00235627
0.00211025
0.00187999
0.00166984
0.00148264
0.00131952
0.00118001
0.00106222
0.000963296
0.000879863
0.000808498
0.000745935
0.000689476
0.000637049
0.000587316
0.000544996
0.000522173
0.00539876
0.00522719
0.00502585
0.00481283
0.00460425
0.0043936
0.00417647
0.00394906
0.00370885
0.00345559
0.00319107
0.00291922
0.00264562
0.00237682
0.00211939
0.00187922
0.00166095
0.00146752
0.00130009
0.00115804
0.00103926
0.000940571
0.000858242
0.000788516
0.00072787
0.000673279
0.000622665
0.000574629
0.000533975
0.000511259
0.00562604
0.00544062
0.00522427
0.00499426
0.00477058
0.00454538
0.00431378
0.00407114
0.00381493
0.00354497
0.00326344
0.00297474
0.00268498
0.00240114
0.0021302
0.00187841
0.00165063
0.00144993
0.00127738
0.00113217
0.00101193
0.000913193
0.000831876
0.000763876
0.000705418
0.000653284
0.000605265
0.00055993
0.000522051
0.000500323
0.00591676
0.00571386
0.00547887
0.00522687
0.00498306
0.00473808
0.00448619
0.00422261
0.00394491
0.00365315
0.00335002
0.00304047
0.00273113
0.00242942
0.00214269
0.00187748
0.00163881
0.00142974
0.00125122
0.00110223
0.000980129
0.000881143
0.000800885
0.000734889
0.000679153
0.000630349
0.000586194
0.00054515
0.000511741
0.000492503
0.00628941
0.00606385
0.00580514
0.00552422
0.00525333
0.00498106
0.00470138
0.00440942
0.00410318
0.00378322
0.00345282
0.00311759
0.00278466
0.00246187
0.00215688
0.00187638
0.00162539
0.00140685
0.00122152
0.00106816
0.000943882
0.000844653
0.000765785
0.000702501
0.000650552
0.000606501
0.000568164
0.000533957
0.000507629
0.000493246
0.00676979
0.00651425
0.00622451
0.00590488
0.00559663
0.00528682
0.00496911
0.00463903
0.00429514
0.0039388
0.00357411
0.00320734
0.00284615
0.0024987
0.00217278
0.00187503
0.00161028
0.0013812
0.00118829
0.00103007
0.000903502
0.00080434
0.000727673
0.000668473
0.000622247
0.000585515
0.000556172
0.000532984
0.000517859
0.000512167
0.00739417
0.00709744
0.00676637
0.00639381
0.0060338
0.00567202
0.00530223
0.00492081
0.00452729
0.00412415
0.00371644
0.00331114
0.0029163
0.00254017
0.00219041
0.00187334
0.00159336
0.00135273
0.00115162
0.000988339
0.000859714
0.000761457
0.000688582
0.00063594
0.000598882
0.000573949
0.000559187
0.000553871
0.000556602
0.000566143
0.00821155
0.00785759
0.00747105
0.00702491
0.0065927
0.00615872
0.00571709
0.00526634
0.00480745
0.00434425
0.00388281
0.00343064
0.00299588
0.00258652
0.00220972
0.00187113
0.00157448
0.00132145
0.00111181
0.000943674
0.000813856
0.000718223
0.000652008
0.000610232
0.00058832
0.000582914
0.000592213
0.000616314
0.000647336
0.000683042
0.00928365
0.00885216
0.0083904
0.00784259
0.00730961
0.00677455
0.00623403
0.0056898
0.005145
0.00460501
0.0040767
0.00356768
0.00308568
0.00263792
0.00223054
0.00186811
0.00155342
0.0012874
0.00106937
0.000897279
0.00076814
0.000678298
0.000623694
0.000600087
0.000603467
0.000630657
0.000679897
0.000751748
0.000826438
0.000904056
0.0106824
0.0101481
0.00958792
0.00890219
0.00822936
0.00755288
0.00687696
0.00620759
0.00555068
0.00491305
0.00430183
0.00372405
0.00318628
0.00269423
0.00225237
0.00186369
0.00152968
0.00125041
0.00102473
0.000850645
0.000725659
0.00064712
0.000612416
0.000618952
0.000664087
0.000745067
0.000858996
0.00100532
0.0011441
0.00128257
0.0124817
0.0118139
0.0111263
0.0102564
0.00939171
0.00852397
0.00766752
0.00683464
0.0060344
0.00527459
0.00456178
0.00390147
0.00329813
0.00275503
0.0022742
0.0018565
0.00150178
0.00120914
0.00097719
0.000804368
0.000689288
0.000631099
0.000629627
0.000685042
0.000796966
0.000962957
0.00117711
0.00143328
0.00166062
0.00188171
0.0147212
0.0138804
0.0130217
0.0119157
0.0108062
0.00969881
0.00861863
0.00758531
0.00661079
0.00570326
0.00486813
0.00410878
0.00342693
0.00282287
0.00229574
0.00184395
0.00146561
0.00115901
0.000922873
0.000756698
0.000661027
0.000637672
0.000689652
0.000820398
0.00103191
0.00132135
0.00167774
0.00208452
0.00243538
0.00276592
0.0175559
0.0164261
0.0152885
0.0139055
0.0125256
0.0111571
0.00982992
0.00856764
0.00738554
0.00629422
0.00530031
0.00440703
0.00361485
0.00292219
0.00232618
0.0018235
0.00141119
0.00108726
0.000851093
0.000703581
0.000647075
0.000685078
0.000821571
0.00105973
0.00140006
0.00183748
0.00235837
0.00294431
0.00349203
0.00401838
0.0219579
0.0205002
0.0190274
0.0173206
0.0156001
0.0138634
0.0121512
0.010502
0.00894658
0.00750853
0.00620362
0.00504008
0.00402014
0.00314198
0.00240175
0.00179539
0.00132003
0.00097473
0.000760969
0.000682055
0.000741619
0.000941763
0.00128154
0.0017539
0.00234457
0.00303008
0.00378054
0.00457729
0.00527511
0.00596754
0.0356858
0.0330715
0.0301027
0.0270839
0.0240733
0.0210706
0.0181428
0.0153543
0.0127578
0.0103944
0.00829048
0.00645758
0.00489592
0.00359901
0.00255823
0.00176693
0.00122323
0.000931494
0.000901238
0.00114478
0.00167375
0.00249417
0.00360081
0.00497458
0.00658132
0.008372
0.0102855
0.0123059
0.0143783
0.01625
0.00497049
0.0049445
0.00492212
0.00490087
0.00488192
0.00486665
0.00485685
0.00485446
0.00486153
0.00488024
0.00491298
0.00496246
0.00503184
0.00512493
0.00524639
0.00540211
0.00559969
0.00584951
0.00616601
0.00656952
0.0070889
0.00776479
0.00865211
0.00981843
0.011341
0.0133038
0.0157971
0.0190913
0.0240815
0.0386076
0.00494169
0.00492269
0.00490656
0.00489332
0.00488512
0.00488292
0.0048879
0.00490151
0.00492548
0.00496187
0.00501312
0.00508213
0.00517238
0.00528813
0.00543462
0.0056185
0.00584847
0.0061363
0.00649816
0.00695657
0.00754314
0.00830185
0.00929136
0.0105831
0.0122578
0.014413
0.0172061
0.0209623
0.026386
0.0417476
0.00494456
0.00494024
0.00493811
0.00493844
0.00494357
0.00495489
0.00497393
0.00500242
0.00504228
0.00509573
0.00516532
0.00525415
0.00536594
0.00550528
0.00567788
0.00589107
0.00615457
0.00648142
0.00688941
0.00740308
0.00805647
0.00889661
0.00998546
0.0113971
0.0132143
0.0155475
0.0186147
0.0227926
0.0285218
0.0452307
0.00498746
0.00499802
0.00501055
0.00502531
0.00504498
0.0050712
0.00510573
0.00515047
0.00520754
0.00527935
0.00536869
0.00547887
0.00561392
0.00577873
0.00597952
0.00622423
0.00652338
0.00689104
0.00734609
0.00791423
0.00863072
0.00954361
0.0107152
0.0122176
0.0141293
0.016572
0.0198448
0.0244544
0.0303951
0.0489718
0.00506482
0.00508891
0.00511553
0.00514467
0.00517917
0.00522098
0.00527205
0.00533442
0.00541034
0.00550238
0.00561355
0.00574741
0.00590827
0.0061014
0.00633348
0.00661306
0.00695146
0.00736353
0.00786895
0.00849405
0.00927443
0.0102578
0.0115048
0.0130823
0.0150611
0.0175722
0.0210139
0.0260967
0.0320924
0.0529289
0.0051687
0.00520472
0.00524444
0.00528758
0.00533693
0.00539462
0.00546279
0.0055436
0.00563948
0.00575313
0.00588774
0.00604706
0.00623569
0.00645923
0.00672476
0.0070414
0.00742102
0.00787909
0.00843567
0.00911713
0.00995849
0.0110059
0.0123164
0.013949
0.015964
0.0185019
0.0220841
0.0277392
0.0336244
0.0572496
0.00529024
0.00533664
0.00538829
0.00544478
0.0055087
0.00558222
0.0056676
0.00576717
0.00588346
0.00601934
0.00617816
0.00636384
0.00658116
0.00683603
0.00713586
0.00749019
0.00791129
0.00841488
0.00902107
0.00975572
0.0106526
0.0117554
0.0131162
0.0147844
0.0168069
0.0193333
0.0230311
0.0294163
0.0350334
0.0621415
0.00542028
0.00547563
0.00553792
0.00560683
0.00568467
0.00577357
0.00587582
0.00599385
0.00613031
0.0062882
0.00647101
0.0066828
0.00692851
0.00721423
0.00754766
0.0079386
0.00839949
0.00894606
0.00959813
0.0103808
0.0113262
0.0124751
0.0138742
0.0155611
0.0175675
0.0200495
0.0238356
0.0311605
0.0363774
0.0678276
0.00554979
0.0056128
0.00568444
0.00576462
0.00585537
0.00595872
0.00607696
0.00621254
0.00636819
0.00654701
0.00675258
0.0069891
0.00726159
0.00757629
0.00794109
0.00836587
0.00886308
0.00944826
0.0101408
0.0109649
0.011951
0.0131373
0.0145647
0.0162583
0.018231
0.0206427
0.0244833
0.0329947
0.0377274
0.0744871
0.0056706
0.00574009
0.00581979
0.0059099
0.00601221
0.00612866
0.00626145
0.00641304
0.00658619
0.00678404
0.00701022
0.007269
0.00756555
0.00790615
0.00829874
0.0087532
0.00928184
0.00989998
0.0106265
0.0114847
0.0125038
0.0137196
0.0151682
0.0168609
0.0187889
0.0211141
0.0249694
0.0349232
0.0391563
0.0821691
0.00577603
0.00585085
0.00593728
0.00603583
0.00614808
0.00627585
0.00642128
0.00658676
0.00677505
0.0069893
0.00723317
0.00751099
0.00782797
0.00819045
0.0086063
0.00908532
0.00963968
0.0102844
0.011038
0.011923
0.0129675
0.014206
0.0156709
0.0173593
0.0192381
0.0214711
0.0253001
0.0369212
0.0407162
0.0906866
0.00586116
0.00594019
0.006032
0.00613735
0.00625768
0.0063947
0.00655043
0.00672722
0.00692779
0.00715529
0.00741341
0.00770649
0.00803974
0.0084195
0.00885357
0.00935162
0.00992568
0.0105906
0.0113644
0.0122691
0.0133322
0.0145875
0.016065
0.0177487
0.019579
0.0217246
0.0254936
0.0389213
0.0424061
0.0995135
0.00592302
0.00600516
0.00610096
0.00621141
0.00633781
0.00648174
0.00664517
0.00683038
0.00704008
0.00727741
0.00754606
0.00785036
0.0081955
0.00858776
0.00903488
0.00954647
0.0101344
0.0108134
0.0116011
0.0125192
0.0135947
0.0148616
0.0163488
0.0180285
0.0198154
0.0218867
0.0255767
0.0408094
0.044144
0.107811
0.00596057
0.00604472
0.00614314
0.00625694
0.0063873
0.00653574
0.00670416
0.00689482
0.00711042
0.0073541
0.00762953
0.007941
0.00829368
0.0086938
0.00914908
0.00966908
0.0102656
0.0109532
0.0117493
0.0126752
0.013758
0.0150319
0.0165257
0.0182029
0.0199555
0.0219714
0.0255804
0.0423951
0.0457248
0.114541
0.00597446
0.00605958
0.00615927
0.00627469
0.00640695
0.00655753
0.00672831
0.00692154
0.00713993
0.00738661
0.00766521
0.00798001
0.00833615
0.00873987
0.00919891
0.00972279
0.0103233
0.0110148
0.0118148
0.0127444
0.0138305
0.0151078
0.0166055
0.0182822
0.0200161
0.0220026
0.02555
0.0433064
0.0467224
0.118375
0.00596656
0.00605172
0.00615145
0.0062669
0.00639914
0.00654969
0.0067204
0.00691356
0.00713186
0.00737843
0.00765687
0.00797147
0.00832738
0.0087309
0.00918977
0.00971358
0.0103141
0.0110058
0.0118059
0.0127358
0.0138224
0.0151004
0.016599
0.0182766
0.0200111
0.0219985
0.0255411
0.0432899
0.0467105
0.118522
0.00593686
0.00602112
0.00611966
0.00623357
0.00636394
0.00651231
0.00668059
0.00687106
0.00708642
0.00732977
0.00760476
0.00791567
0.00826772
0.00866725
0.00912209
0.00964189
0.0102385
0.0109264
0.0117232
0.0126501
0.0137344
0.0150104
0.0165069
0.0181866
0.0199411
0.0219596
0.0255555
0.0423511
0.0456937
0.114962
0.00588363
0.00596597
0.00606203
0.00617273
0.00629926
0.00644321
0.00660653
0.00679153
0.00700089
0.00723773
0.00750572
0.00780919
0.00815341
0.00854481
0.00899128
0.0095026
0.0100908
0.0107704
0.0115593
0.0124791
0.0135572
0.0148275
0.0163189
0.0180025
0.0197929
0.0218683
0.025541
0.0407528
0.0441049
0.108452
0.00580661
0.00588596
0.00597817
0.00608398
0.00620467
0.00634189
0.00649766
0.00667431
0.00687455
0.00710149
0.00735882
0.00765092
0.00798308
0.00836182
0.00879513
0.00929289
0.00986728
0.0105332
0.0113087
0.012216
0.0132827
0.0145426
0.0160254
0.017714
0.0195496
0.0217014
0.025455
0.0388694
0.042371
0.100313
0.00570718
0.00578245
0.00586947
0.00596872
0.00608159
0.00620985
0.00635556
0.00652109
0.00670915
0.00692288
0.00716596
0.00744275
0.00775858
0.00812
0.00853509
0.00901386
0.00956868
0.0102147
0.0109706
0.0118588
0.0129077
0.0141516
0.0156223
0.0173165
0.0192028
0.0214453
0.0252672
0.0368892
0.040695
0.0915906
0.00558862
0.00565874
0.00573923
0.00583031
0.00593354
0.00605078
0.00618416
0.00633608
0.00650923
0.00670673
0.00693223
0.00719006
0.00748551
0.00782511
0.00821701
0.00867131
0.00920054
0.00982022
0.0105493
0.0114113
0.0124352
0.0136566
0.0151111
0.0168104
0.0187488
0.0210886
0.0249509
0.0349218
0.0391569
0.0831298
0.0054561
0.00551998
0.00559268
0.00567412
0.0057661
0.00587058
0.00598974
0.00612598
0.00628197
0.00646074
0.00666588
0.00690163
0.0071732
0.00748704
0.00785124
0.00827597
0.00877387
0.00936069
0.0100559
0.0108838
0.0118747
0.0130663
0.0144994
0.0162005
0.0181871
0.0206208
0.0244861
0.0330292
0.0377563
0.075468
0.00531644
0.005373
0.00543669
0.00550721
0.00558662
0.00567699
0.00578053
0.00589961
0.0060368
0.00619504
0.00637779
0.00658916
0.0068342
0.0071192
0.00745213
0.00784303
0.00830461
0.00885276
0.00950738
0.0102935
0.0112431
0.0123967
0.0138009
0.0154966
0.0175214
0.0200346
0.023864
0.0312316
0.0364405
0.0688048
0.00517784
0.0052259
0.00527937
0.00533786
0.00540373
0.00547909
0.00556614
0.00566716
0.00578462
0.00592132
0.00608054
0.0062662
0.00648313
0.00673741
0.00703671
0.00739092
0.00781258
0.00831753
0.00892589
0.00966342
0.0105636
0.0116701
0.0130357
0.0147142
0.0167604
0.0193283
0.0230865
0.0295216
0.0351363
0.0631039
0.00504928
0.00508748
0.00512951
0.00517507
0.00522674
0.00528662
0.00535681
0.00543946
0.00553692
0.00565184
0.00578728
0.00594695
0.00613542
0.00635843
0.00662336
0.0069397
0.00731961
0.0077787
0.00833695
0.00902051
0.00986419
0.0109144
0.0122296
0.0138747
0.0159189
0.0185088
0.0221655
0.0278754
0.0337735
0.0581979
0.00493988
0.00496669
0.00499609
0.005028
0.00506512
0.00510938
0.00516272
0.00522717
0.00530494
0.00539853
0.00551081
0.00564523
0.00580604
0.00599866
0.00623002
0.0065091
0.00684754
0.00726029
0.00776689
0.0083934
0.00917534
0.010161
0.0114133
0.0130058
0.0150194
0.017592
0.0211186
0.026261
0.0322946
0.0538731
0.00485842
0.00487221
0.0048879
0.00490565
0.00492803
0.00495672
0.00499351
0.00504031
0.0050992
0.00517252
0.00526294
0.00537367
0.00550865
0.0056729
0.00587288
0.00611697
0.00641603
0.00678421
0.00724015
0.00780933
0.00852716
0.0094426
0.0106209
0.0121414
0.0140933
0.0166051
0.0199698
0.0246453
0.0306572
0.0499282
0.00481275
0.00481213
0.0048134
0.00481668
0.0048243
0.00483773
0.00485861
0.0048887
0.00492991
0.00498439
0.00505466
0.00514372
0.00525526
0.00539395
0.00556576
0.00577839
0.00604187
0.0063693
0.00677827
0.00729322
0.00794865
0.00879283
0.00989112
0.0113249
0.0131869
0.0155944
0.0187576
0.0230105
0.0288499
0.046217
0.00480841
0.0047935
0.0047807
0.00476998
0.00476359
0.00476269
0.0047686
0.00478284
0.00480718
0.00484369
0.0048948
0.00496342
0.0050531
0.00516815
0.00531405
0.00549769
0.005728
0.00601683
0.00638033
0.00684114
0.00743152
0.00819691
0.00919936
0.0105171
0.0122394
0.0144694
0.0173581
0.0211985
0.0267659
0.0427592
0.00483834
0.00481597
0.00479574
0.0047758
0.00475748
0.00474232
0.00473215
0.00472903
0.00473509
0.00475265
0.00478414
0.00483239
0.00490067
0.00499297
0.00511409
0.00526999
0.00546839
0.00571979
0.00603895
0.00644657
0.00697207
0.00765759
0.00856109
0.0097564
0.0113269
0.0133615
0.0159476
0.0193357
0.0244943
0.039638
0.0367044
0.0340448
0.0309887
0.0278584
0.024732
0.0216193
0.0185916
0.0157159
0.0130461
0.0106231
0.00847258
0.00660488
0.00501873
0.00370623
0.00265752
0.001865
0.00132608
0.00104481
0.00103043
0.00129498
0.0018496
0.00269938
0.00383737
0.00524194
0.00687555
0.00868533
0.0106067
0.0126221
0.0146748
0.0165239
0.0223892
0.0209427
0.0194525
0.0176985
0.0159223
0.0141316
0.0123709
0.0106813
0.0090937
0.00763134
0.00630883
0.00513313
0.0041053
0.00322255
0.00248021
0.00187354
0.0013991
0.0010553
0.000843074
0.000765265
0.000825074
0.00102425
0.00136154
0.00182962
0.00241395
0.00309061
0.00382989
0.00461432
0.0052921
0.00597469
0.0178117
0.0167007
0.0155656
0.0141638
0.0127546
0.0113544
0.00999672
0.00870788
0.00750417
0.00639625
0.00539019
0.00448843
0.00369061
0.00299438
0.00239617
0.001892
0.0014782
0.00115198
0.000911857
0.000757896
0.000691762
0.0007166
0.000836463
0.00105507
0.00137391
0.0017892
0.00228923
0.00285806
0.00338994
0.00391183
0.0148731
0.014043
0.0131857
0.0120683
0.0109429
0.00981957
0.00872495
0.00767952
0.0066954
0.00578065
0.0049404
0.00417762
0.00349365
0.0028884
0.00236065
0.00190835
0.00152908
0.00122039
0.000980188
0.000807197
0.000701479
0.000664933
0.000701341
0.000815448
0.0010107
0.00128544
0.00162937
0.00202649
0.00237235
0.00270306
0.0125402
0.0118766
0.0111874
0.0103117
0.00944269
0.00857337
0.00771722
0.0068856
0.00608689
0.00532851
0.00461693
0.00395769
0.00335529
0.00281304
0.0023329
0.0019155
0.00156029
0.0012658
0.00102997
0.000850654
0.000726265
0.00065637
0.000641937
0.000684764
0.000786039
0.00094425
0.0011534
0.00140634
0.00163305
0.00185397
0.0106708
0.010138
0.00957581
0.00888907
0.0082195
0.00755082
0.00688471
0.00622545
0.00557768
0.00494758
0.00434216
0.00376867
0.003234
0.00274415
0.0023037
0.00191558
0.001581
0.00129961
0.00106986
0.000889461
0.000756023
0.000667509
0.000622418
0.000619516
0.000657326
0.000733708
0.000845587
0.000991385
0.00113108
0.0012698
0.00922481
0.00879498
0.00833289
0.00778797
0.00726243
0.0067392
0.00621281
0.00568312
0.00515172
0.00462304
0.00410363
0.00360126
0.00312403
0.00267954
0.00227414
0.00191242
0.001597
0.00132861
0.0011064
0.000928377
0.000791903
0.000694001
0.000631507
0.000601072
0.000599331
0.000623408
0.000671452
0.000743598
0.000820156
0.000899733
0.00812286
0.00777183
0.00738707
0.00694614
0.00652299
0.00610206
0.0056758
0.00524116
0.0047976
0.00434782
0.00389732
0.00345356
0.00302497
0.00261991
0.00224574
0.00190818
0.00161089
0.00135553
0.00114193
0.000968501
0.00083259
0.000730717
0.000658773
0.000612272
0.000586879
0.000579271
0.000587579
0.000611818
0.000644562
0.000682688
0.00728744
0.00699416
0.00666624
0.00629988
0.00594937
0.00560058
0.00524605
0.00488095
0.00450344
0.00411479
0.00371934
0.0033238
0.00293636
0.00256555
0.00221922
0.00190375
0.00162353
0.00138092
0.00117635
0.00100858
0.000875075
0.000772138
0.000695265
0.000639544
0.000600306
0.000573921
0.000558297
0.000552677
0.00055621
0.000567326
0.00665131
0.0063991
0.00611308
0.00580038
0.00550142
0.00520405
0.00490101
0.0045869
0.00425908
0.00391777
0.00356621
0.00321025
0.00285754
0.00251641
0.0021948
0.0018994
0.00163505
0.00140458
0.00120889
0.00104706
0.000916698
0.000814138
0.000734827
0.000673819
0.000626448
0.000588929
0.0005589
0.000534982
0.000519637
0.000514304
0.00616286
0.00594011
0.00568524
0.00541113
0.00514935
0.00488893
0.00462325
0.00434673
0.00405635
0.00375161
0.00343493
0.00311133
0.00278782
0.00247229
0.00217251
0.00189517
0.00164534
0.00142616
0.00123883
0.00108272
0.000955623
0.00085405
0.000773599
0.00070949
0.000657209
0.000612914
0.000574041
0.000538831
0.000511481
0.000496423
0.00578435
0.00558353
0.00535226
0.00510681
0.0048719
0.00463815
0.00439964
0.00415089
0.00388866
0.00361207
0.00332293
0.00302565
0.00272656
0.00243298
0.0021523
0.00189105
0.0016543
0.00144536
0.00126564
0.00111476
0.000990722
0.00089028
0.000809295
0.000743244
0.000687806
0.000639191
0.000594622
0.000552425
0.000517463
0.000496808
0.0054894
0.00530509
0.00509212
0.00486833
0.00465317
0.004439
0.00422024
0.00399188
0.00375063
0.0034955
0.003228
0.00295199
0.00267318
0.00239826
0.00213413
0.00188699
0.00166185
0.00146201
0.00128905
0.00114276
0.0010214
0.000921972
0.00084064
0.000773183
0.000715477
0.000663804
0.000615531
0.000569021
0.000529323
0.000505737
0.00525931
0.00508777
0.00488937
0.00468231
0.00448199
0.004282
0.00407738
0.00386365
0.00363775
0.00339883
0.00314819
0.00288927
0.00262717
0.00236794
0.00211794
0.00188302
0.00166797
0.00147608
0.00130897
0.00116661
0.00104745
0.000948758
0.000866983
0.000798231
0.000738622
0.000684707
0.000634005
0.000584907
0.000542431
0.000517703
0.00508047
0.0049192
0.00473274
0.00453867
0.00434939
0.0041596
0.00396472
0.00376117
0.00354629
0.00331943
0.00308184
0.00283654
0.00258804
0.00234183
0.00210371
0.00187917
0.00167276
0.00148766
0.00132551
0.00118638
0.00106891
0.00097059
0.000888156
0.000818044
0.000756682
0.000701032
0.000648699
0.00059816
0.000554281
0.000529579
0.004943
0.00479014
0.0046135
0.00442952
0.00424829
0.00406554
0.00387711
0.00368029
0.00347315
0.00325516
0.00302752
0.00279291
0.00255532
0.00231971
0.00209141
0.00187553
0.00167635
0.00149693
0.00133886
0.00120229
0.00108598
0.000987644
0.000904289
0.000832678
0.000769674
0.000712588
0.000659139
0.000607917
0.000563549
0.000539576
0.00483962
0.00469353
0.00452478
0.00434853
0.00417291
0.00399465
0.00381037
0.00361774
0.00341583
0.00320423
0.002984
0.00275757
0.00252853
0.00230137
0.00208102
0.0018722
0.00167893
0.00150411
0.00134928
0.00121458
0.00109892
0.00100019
0.000915684
0.000842503
0.000777919
0.000719588
0.000665363
0.000613928
0.000569621
0.000546643
0.0047646
0.00462381
0.00446123
0.00429069
0.00411881
0.00394319
0.00376131
0.00357109
0.00337244
0.00316515
0.00295018
0.00272977
0.0025072
0.0022866
0.00207248
0.00186925
0.00168066
0.00150942
0.00135699
0.00122351
0.00110799
0.00100853
0.000922712
0.000847961
0.000781845
0.000722409
0.000667611
0.000616224
0.000572251
0.000550198
0.00471332
0.00457658
0.0044188
0.00425235
0.00408274
0.00390843
0.00372761
0.00353857
0.00334151
0.00313676
0.00292516
0.00270886
0.00249092
0.00227516
0.00206575
0.00186676
0.00168168
0.00151303
0.00136219
0.0012293
0.00111345
0.00101296
0.000925672
0.000849335
0.000781812
0.000721394
0.000666123
0.000614919
0.000571398
0.00055001
0.00468196
0.00454834
0.00439436
0.0042309
0.00406252
0.0038885
0.00370766
0.00351882
0.00332191
0.0031181
0.00290822
0.00269431
0.00247935
0.00226688
0.00206076
0.00186475
0.00168208
0.00151509
0.00136505
0.00123212
0.00111549
0.00101367
0.000924802
0.000846895
0.000778054
0.000716656
0.000661113
0.000610191
0.000567168
0.000546119
0.00466737
0.00453636
0.00438549
0.00422435
0.00405662
0.00388218
0.00370043
0.0035108
0.00331286
0.00310852
0.0028988
0.00268574
0.00247223
0.00226161
0.00205746
0.00186324
0.00168192
0.00151566
0.00136566
0.00123207
0.00111422
0.00101081
0.000920243
0.000840776
0.000770746
0.000708579
0.000652853
0.00060229
0.000559796
0.000538727
0.00466685
0.00453843
0.00439038
0.00423121
0.00406393
0.00388855
0.00370518
0.00351376
0.0033138
0.00310753
0.00289657
0.00268292
0.00246942
0.00225928
0.00205581
0.00186222
0.00168121
0.00151478
0.00136404
0.00122919
0.00110969
0.00100445
0.000912087
0.000831098
0.000760034
0.000697297
0.00064156
0.0005915
0.000549592
0.000528177
0.00467793
0.00455253
0.00440739
0.00425016
0.00408334
0.00390699
0.00372136
0.00352717
0.00332436
0.00311488
0.00290137
0.00268575
0.00247088
0.00225987
0.00205581
0.00186166
0.00167991
0.00151241
0.00136018
0.00122349
0.00110192
0.000994617
0.000900407
0.000817982
0.000745983
0.000682973
0.000627512
0.000578114
0.000536922
0.000514877
0.00469816
0.00457665
0.00443499
0.00428008
0.00411393
0.00393661
0.00374845
0.00355073
0.00334431
0.00313057
0.00291325
0.00269436
0.00247674
0.00226347
0.00205748
0.00186153
0.00167794
0.00150842
0.00135397
0.00121488
0.0010909
0.00098136
0.000885292
0.000801539
0.000728812
0.000665811
0.000610849
0.000562451
0.000522179
0.000499311
0.00472506
0.00460874
0.00447167
0.00431989
0.00415501
0.00397675
0.00378597
0.0035843
0.00337356
0.00315479
0.0029325
0.00270907
0.0024873
0.00227027
0.00206088
0.00186177
0.00167513
0.00150261