/*--------------------------------*- C++ -*----------------------------------*\
  =========                 |
  \\      /  F ield         | OpenFOAM: The Open Source CFD Toolbox
   \\    /   O peration     | Website:  https://openfoam.org
    \\  /    A nd           | Version:  12
     \\/     M anipulation  |
\*---------------------------------------------------------------------------*/
FoamFile
{
    format      ascii;
    class       volVectorField;
    location    "260";
    object      U;
}
// * * * * * * * * * * * * * * * * * * * * * * * * * * * * * * * * * * * * * //

dimensions      [0 1 -1 0 0 0 0];

internalField   nonuniform List<vector> 
6750
(
(0.200065 -0.00312056 0)
(0.200334 -0.00958854 0)
(0.200601 -0.0155815 0)
(0.200832 -0.0211568 0)
(0.200689 -0.0263969 0)
(0.200037 -0.00347817 0)
(0.200271 -0.0101448 0)
(0.200458 -0.0160524 0)
(0.200516 -0.0213266 0)
(0.200374 -0.0260402 0)
(0.200026 -0.00363729 0)
(0.200122 -0.0103568 0)
(0.200123 -0.0161212 0)
(0.19998 -0.0210919 0)
(0.19971 -0.0253522 0)
(0.20001 -0.00366804 0)
(0.199953 -0.0102922 0)
(0.199761 -0.0158485 0)
(0.199437 -0.020537 0)
(0.199037 -0.0244792 0)
(0.199996 -0.0035978 0)
(0.199798 -0.00999866 0)
(0.199422 -0.0152922 0)
(0.198921 -0.0197075 0)
(0.198376 -0.0233925 0)
(0.199984 -0.00344429 0)
(0.199656 -0.00951128 0)
(0.199104 -0.0144866 0)
(0.198422 -0.0186127 0)
(0.197713 -0.0220484 0)
(0.199974 -0.003222 0)
(0.199524 -0.00885762 0)
(0.198799 -0.0134565 0)
(0.197931 -0.0172613 0)
(0.197044 -0.0204298 0)
(0.199965 -0.00294198 0)
(0.199398 -0.00806047 0)
(0.198505 -0.0122255 0)
(0.197451 -0.0156694 0)
(0.196378 -0.0185413 0)
(0.199956 -0.00261383 0)
(0.199281 -0.00714226 0)
(0.198228 -0.0108212 0)
(0.196995 -0.0138646 0)
(0.195739 -0.0164071 0)
(0.199949 -0.00224726 0)
(0.199175 -0.00612753 0)
(0.197976 -0.00927744 0)
(0.196579 -0.0118853 0)
(0.195152 -0.0140684 0)
(0.199943 -0.00185259 0)
(0.199084 -0.00504299 0)
(0.197758 -0.00763239 0)
(0.196219 -0.00977822 0)
(0.194641 -0.0115778 0)
(0.199938 -0.00144046 0)
(0.199011 -0.00391626 0)
(0.197583 -0.00592659 0)
(0.195927 -0.00759374 0)
(0.194226 -0.00899386 0)
(0.199935 -0.00102117 0)
(0.198957 -0.00277421 0)
(0.197453 -0.00419972 0)
(0.195712 -0.00538181 0)
(0.193918 -0.00637537 0)
(0.199931 -0.000603933 0)
(0.198926 -0.00164155 0)
(0.197371 -0.0024878 0)
(0.195574 -0.003188 0)
(0.19372 -0.00377667 0)
(0.199921 -0.000200469 0)
(0.198921 -0.000537787 0)
(0.197334 -0.000819449 0)
(0.19551 -0.00105035 0)
(0.193626 -0.00124425 0)
(0.199921 0.000200372 0)
(0.198921 0.000537577 0)
(0.197334 0.000819192 0)
(0.19551 0.00105008 0)
(0.193626 0.00124401 0)
(0.199931 0.000603835 0)
(0.198926 0.00164134 0)
(0.197371 0.00248754 0)
(0.195574 0.00318774 0)
(0.19372 0.00377643 0)
(0.199935 0.00102108 0)
(0.198957 0.00277401 0)
(0.197453 0.00419947 0)
(0.195712 0.00538155 0)
(0.193918 0.00637512 0)
(0.199938 0.00144037 0)
(0.199011 0.00391606 0)
(0.197583 0.00592634 0)
(0.195927 0.00759349 0)
(0.194226 0.00899362 0)
(0.199943 0.0018525 0)
(0.199084 0.00504279 0)
(0.197758 0.00763215 0)
(0.196219 0.00977797 0)
(0.194641 0.0115776 0)
(0.199949 0.00224716 0)
(0.199175 0.00612733 0)
(0.197976 0.0092772 0)
(0.196579 0.011885 0)
(0.195152 0.0140682 0)
(0.199956 0.00261374 0)
(0.199281 0.00714207 0)
(0.198227 0.010821 0)
(0.196995 0.0138643 0)
(0.195739 0.0164069 0)
(0.199965 0.0029419 0)
(0.199398 0.00806029 0)
(0.198505 0.0122253 0)
(0.197451 0.0156692 0)
(0.196378 0.0185411 0)
(0.199974 0.00322192 0)
(0.199524 0.00885745 0)
(0.198799 0.0134563 0)
(0.197931 0.0172611 0)
(0.197044 0.0204296 0)
(0.199984 0.00344421 0)
(0.199656 0.00951111 0)
(0.199104 0.0144864 0)
(0.198422 0.0186125 0)
(0.197713 0.0220482 0)
(0.199996 0.00359773 0)
(0.199798 0.00999851 0)
(0.199422 0.015292 0)
(0.198921 0.0197073 0)
(0.198376 0.0233924 0)
(0.20001 0.00366797 0)
(0.199953 0.0102921 0)
(0.199761 0.0158483 0)
(0.199437 0.0205369 0)
(0.199037 0.0244791 0)
(0.200026 0.00363723 0)
(0.200122 0.0103567 0)
(0.200123 0.0161211 0)
(0.19998 0.0210918 0)
(0.19971 0.0253521 0)
(0.200037 0.00347811 0)
(0.200271 0.0101447 0)
(0.200458 0.0160523 0)
(0.200516 0.0213266 0)
(0.200373 0.0260402 0)
(0.200065 0.00312053 0)
(0.200334 0.00958848 0)
(0.200601 0.0155815 0)
(0.200831 0.0211568 0)
(0.200689 0.026397 0)
(0.19851 -0.0381709 0)
(0.196771 -0.0437661 0)
(0.19529 -0.048891 0)
(0.194259 -0.0534921 2.81402e-22)
(0.193531 -0.0574577 0)
(0.193048 -0.0607269 0)
(0.192799 -0.0632334 -1.92647e-20)
(0.192771 -0.0648816 1.94348e-20)
(0.192944 -0.0655545 1.57791e-22)
(0.193246 -0.0651975 1.0104e-20)
(0.19365 -0.0636825 1.9246e-23)
(0.194077 -0.0608565 -1.25611e-23)
(0.194448 -0.0567894 -5.20294e-21)
(0.194679 -0.0515507 -5.16339e-21)
(0.194696 -0.0452837 -1.20565e-20)
(0.194444 -0.0381985 1.20608e-20)
(0.193893 -0.0305546 -4.84026e-21)
(0.193043 -0.0226328 -4.49197e-21)
(0.191924 -0.0147145 3.11605e-22)
(0.190583 -0.00705515 3.53698e-22)
(0.189075 0.000134894 8.62623e-21)
(0.187473 0.00674091 -1.27107e-22)
(0.185861 0.0126392 1.47644e-20)
(0.184299 0.0177729 -1.46338e-20)
(0.182838 0.0221314 0)
(0.181518 0.0257354 0)
(0.18037 0.0286262 -1.85831e-22)
(0.179419 0.0308565 0)
(0.178684 0.0324811 0)
(0.178158 0.0335259 0)
(0.197622 -0.0415323 0)
(0.196045 -0.0470374 0)
(0.194851 -0.0517294 0)
(0.194008 -0.0558196 -2.65965e-22)
(0.193399 -0.0592944 0)
(0.19301 -0.0621136 0)
(0.19284 -0.0642058 1.9183e-20)
(0.192875 -0.0654742 -1.96442e-20)
(0.19309 -0.0658099 -1.48517e-22)
(0.193415 -0.065181 0)
(0.193825 -0.0634222 0)
(0.194232 -0.0604516 -9.55411e-21)
(0.194569 -0.0563324 9.5842e-21)
(0.194758 -0.0511355 0)
(0.194731 -0.0449977 -3.21577e-20)
(0.194442 -0.0381126 3.2158e-20)
(0.193865 -0.030715 0)
(0.193004 -0.0230599 8.69795e-21)
(0.191885 -0.015399 -8.74216e-21)
(0.190555 -0.00796322 0)
(0.189072 -0.000942782 0)
(0.1875 0.00554151 1.19245e-22)
(0.185904 0.0113802 -1.41752e-20)
(0.184349 0.0165157 1.42821e-20)
(0.182883 0.0209294 0)
(0.181545 0.0246329 0)
(0.180362 0.0276585 1.74995e-22)
(0.179358 0.0300517 0)
(0.178556 0.0318709 0)
(0.177964 0.0331917 0)
(0.196785 -0.0441215 0)
(0.195527 -0.0491161 0)
(0.194514 -0.0533896 0)
(0.193763 -0.0571461 1.95775e-20)
(0.193228 -0.0603387 -1.97948e-20)
(0.192911 -0.0629039 2.06663e-20)
(0.192808 -0.0647585 -2.08606e-20)
(0.1929 -0.0658049 3.21416e-22)
(0.193159 -0.0659428 0)
(0.193516 -0.0651468 0)
(0.19394 -0.0632309 -3.20848e-22)
(0.194342 -0.0601656 0)
(0.194657 -0.0560022 0)
(0.194808 -0.0508141 -7.59548e-23)
(0.19473 -0.044736 -5.29351e-20)
(0.19438 -0.0379544 5.29355e-20)
(0.193738 -0.0306924 7.02844e-23)
(0.192812 -0.02319 0)
(0.191633 -0.0156838 0)
(0.190249 -0.00838807 2.54602e-22)
(0.188719 -0.0014802 0)
(0.187107 0.00490396 0)
(0.185478 0.0106781 -2.36177e-22)
(0.183891 0.0157857 -1.3762e-20)
(0.182393 0.0202055 1.36338e-20)
(0.181021 0.0239447 -1.26437e-20)
(0.1798 0.02703 1.24862e-20)
(0.178747 0.0294994 0)
(0.177895 0.0314108 0)
(0.177318 0.0329086 0)
(0.196046 -0.0464482 0)
(0.195012 -0.0510233 -4.23873e-20)
(0.194103 -0.0549622 2.13726e-20)
(0.193421 -0.0584263 4.44203e-20)
(0.192956 -0.0613502 -4.4958e-20)
(0.192708 -0.0636623 2.23626e-20)
(0.192666 -0.0652774 0)
(0.192817 -0.0660997 7.02125e-22)
(0.193111 -0.0660467 0)
(0.193508 -0.0650735 0)
(0.193948 -0.0630051 1.13831e-20)
(0.19435 -0.0598478 -1.07576e-20)
(0.194646 -0.0556412 0)
(0.194756 -0.0504624 7.97426e-23)
(0.194619 -0.0444439 -7.33009e-20)
(0.194194 -0.0377655 7.33013e-20)
(0.193464 -0.0306393 -7.37894e-23)
(0.192443 -0.0232918 0)
(0.191165 -0.0159447 -8.50151e-21)
(0.189684 -0.0087985 7.94197e-21)
(0.188062 -0.00201995 2.43014e-22)
(0.186367 0.00426388 0)
(0.184663 0.00996759 -4.44997e-22)
(0.183009 0.0150387 0)
(0.181452 0.0194559 1.30025e-20)
(0.180026 0.0232237 -2.47767e-20)
(0.178755 0.0263643 2.34176e-20)
(0.17765 0.0289086 1.0508e-20)
(0.176745 0.0309105 -2.16977e-20)
(0.176203 0.0325854 0)
(0.195288 -0.0486643 0)
(0.194389 -0.0528751 4.75731e-20)
(0.193562 -0.0565019 -4.67486e-20)
(0.192952 -0.0596777 0)
(0.192557 -0.0623327 0)
(0.192372 -0.0643914 7.61186e-22)
(0.192389 -0.0657671 0)
(0.192592 -0.0663653 -7.35668e-22)
(0.192925 -0.066125 1.16152e-20)
(0.193356 -0.0649663 -1.17748e-20)
(0.193809 -0.0627496 -1.16333e-20)
(0.194209 -0.0594957 1.13319e-20)
(0.194482 -0.0552406 3.38227e-22)
(0.194546 -0.0500643 -1.63275e-22)
(0.194342 -0.0440979 -9.32753e-20)
(0.19383 -0.0375153 9.32757e-20)
(0.192999 -0.030519 1.44502e-22)
(0.191864 -0.0233231 -2.76556e-22)
(0.190466 -0.0161358 8.49727e-21)
(0.188864 -0.00914452 -8.19043e-21)
(0.187125 -0.00250492 -8.05068e-21)
(0.185319 0.00366461 7.74041e-21)
(0.183513 0.00928268 4.66355e-22)
(0.181766 0.0143003 0)
(0.180125 0.0186972 -4.02166e-22)
(0.178627 0.0224765 0)
(0.177291 0.025657 0)
(0.176126 0.0282638 -2.22712e-20)
(0.175161 0.0303448 2.12996e-20)
(0.174647 0.0321876 0)
(0.194434 -0.0507712 4.89631e-20)
(0.19362 -0.0546338 -7.69706e-20)
(0.192868 -0.0579611 2.53602e-20)
(0.192329 -0.0608599 0)
(0.191999 -0.063256 2.56457e-20)
(0.191875 -0.0650699 -2.51145e-20)
(0.191946 -0.0662138 2.47034e-20)
(0.192199 -0.0665961 -2.55962e-20)
(0.192568 -0.0661713 0)
(0.193027 -0.0648252 -7.73808e-22)
(0.193488 -0.0624638 1.18535e-20)
(0.19388 -0.0591095 -6.16755e-21)
(0.194122 -0.0547992 -9.29565e-22)
(0.194134 -0.0496154 -5.3896e-21)
(0.193855 -0.0436888 -1.12886e-19)
(0.193249 -0.0371887 1.12883e-19)
(0.192308 -0.0303096 -4.81994e-21)
(0.191051 -0.0232552 7.70786e-22)
(0.189523 -0.0162216 -4.06213e-21)
(0.187788 -0.00938409 8.4564e-21)
(0.185917 -0.00288787 4.80002e-22)
(0.183984 0.00315695 0)
(0.182059 0.00867481 -1.41299e-20)
(0.180201 0.0136209 1.44094e-20)
(0.178461 0.0179768 -1.32714e-20)
(0.176872 0.0217454 1.27442e-20)
(0.175458 0.0249436 7.26391e-22)
(0.174221 0.0275919 1.12037e-20)
(0.173188 0.0297319 -3.27073e-20)
(0.172684 0.0317179 2.30865e-20)
(0.193439 -0.0527524 -2.56415e-20)
(0.192679 -0.0562808 2.89632e-20)
(0.191996 -0.0593266 2.90065e-20)
(0.191522 -0.061964 -2.94126e-20)
(0.191254 -0.0641132 2.74938e-20)
(0.191186 -0.0656916 -2.95459e-20)
(0.19131 -0.066612 -8.83821e-22)
(0.191606 -0.0667873 0)
(0.192008 -0.0661776 1.30655e-20)
(0.192487 -0.0646451 3.72397e-22)
(0.19295 -0.0621409 3.21774e-22)
(0.193327 -0.0586827 -1.28907e-20)
(0.193531 -0.0543102 -5.38763e-21)
(0.193483 -0.049109 8.52356e-21)
(0.193124 -0.0432098 -1.34606e-19)
(0.19242 -0.0367786 1.29364e-19)
(0.191365 -0.0300035 7.20529e-21)
(0.189982 -0.023079 -5.28116e-21)
(0.188321 -0.0161908 -8.49364e-21)
(0.186449 -0.00950358 -1.20824e-22)
(0.18444 -0.00315247 -1.62824e-22)
(0.182374 0.00276061 7.61275e-21)
(0.180321 0.00816638 0)
(0.178343 0.0130247 3.84557e-22)
(0.176491 0.0173198 -1.19169e-20)
(0.174801 0.0210558 1.25928e-20)
(0.173295 0.0242484 -1.16745e-20)
(0.171976 0.0269152 1.07831e-20)
(0.170865 0.029092 1.06692e-20)
(0.170348 0.0311899 -1.20898e-20)
(0.192265 -0.0546037 0)
(0.191538 -0.0578165 2.72219e-20)
(0.190918 -0.0606006 -3.31532e-20)
(0.190505 -0.0629912 3.12319e-20)
(0.190294 -0.0649041 -2.98233e-20)
(0.19028 -0.0662551 2.73783e-20)
(0.190453 -0.0669584 -2.77268e-20)
(0.190783 -0.0669353 -1.8087e-21)
(0.191216 -0.0661335 -8.85278e-22)
(0.191707 -0.0644182 -8.63425e-22)
(0.192166 -0.061772 -8.32187e-22)
(0.192519 -0.0582058 4.01199e-22)
(0.192677 -0.0537644 -6.35196e-21)
(0.192564 -0.0485368 3.15264e-21)
(0.192121 -0.0426542 -1.4754e-19)
(0.191316 -0.0362799 1.5291e-19)
(0.190146 -0.0295967 2.24239e-21)
(0.188638 -0.0227914 -4.17896e-21)
(0.186846 -0.0160406 2.65318e-22)
(0.184838 -0.00949926 1.02519e-21)
(0.182693 -0.00329323 4.70369e-22)
(0.180493 0.00248346 4.44872e-22)
(0.178309 0.00776799 8.44415e-22)
(0.176207 0.012525 -1.39533e-20)
(0.174238 0.0167423 1.37069e-20)
(0.172439 0.0204254 -1.19967e-20)
(0.170833 0.0235903 1.10792e-20)
(0.169423 0.0262529 -9.68294e-21)
(0.168226 0.0284448 1.15902e-20)
(0.167674 0.0306212 0)
(0.190877 -0.0563263 0)
(0.19017 -0.0592433 1.9768e-21)
(0.189607 -0.0617838 -2.74012e-20)
(0.189252 -0.0639405 4.15401e-22)
(0.189094 -0.0656261 3.18913e-20)
(0.18913 -0.0667562 1.94884e-21)
(0.189349 -0.0672455 1.94938e-21)
(0.189704 -0.0670309 -1.30399e-20)
(0.190164 -0.0660307 1.61132e-20)
(0.190658 -0.0641381 -4.95956e-24)
(0.191106 -0.0613469 -6.82516e-21)
(0.191428 -0.0576685 6.86616e-21)
(0.191535 -0.0531522 -2.69318e-21)
(0.191351 -0.0478905 3.10236e-21)
(0.19082 -0.0420152 -1.68326e-19)
(0.189913 -0.0356877 1.68325e-19)
(0.18863 -0.0290863 2.40711e-21)
(0.187001 -0.0223909 -2.6962e-21)
(0.185082 -0.0157699 3.94173e-21)
(0.182944 -0.00936958 -5.21195e-21)
(0.180669 -0.00330735 -2.92525e-23)
(0.178338 0.00233035 7.03345e-21)
(0.176028 0.00748697 -7.87569e-21)
(0.173802 0.0121322 -7.8285e-22)
(0.171715 0.0162571 -8.02709e-22)
(0.169805 0.0198699 1.17143e-20)
(0.168094 0.022987 -3.29912e-22)
(0.166586 0.025624 -1.23936e-20)
(0.165297 0.0278102 0)
(0.16469 0.0300321 0)
(0.18924 -0.0579226 0)
(0.188546 -0.0605626 -3.52932e-20)
(0.188037 -0.0628747 4.09936e-22)
(0.187735 -0.0648082 5.22143e-22)
(0.187627 -0.0662739 6.52628e-20)
(0.187709 -0.0671884 -3.3852e-20)
(0.187968 -0.0674688 -2.03723e-21)
(0.188348 -0.067062 0)
(0.188825 -0.0658607 1.44461e-20)
(0.189316 -0.0637929 -1.465e-20)
(0.189745 -0.0608546 7.13548e-21)
(0.190028 -0.0570603 -3.99115e-22)
(0.190078 -0.0524641 -6.81418e-21)
(0.189819 -0.047162 1.92614e-22)
(0.1892 -0.0412866 -1.85613e-19)
(0.188191 -0.034998 1.85695e-19)
(0.186798 -0.02847 -1.54119e-22)
(0.185053 -0.0218766 -4.5059e-21)
(0.183014 -0.0153788 2.93443e-22)
(0.180754 -0.00911479 5.17097e-21)
(0.178356 -0.00319427 -7.8081e-21)
(0.175904 0.0023034 7.22427e-21)
(0.173473 0.00732766 0)
(0.17113 0.011853 8.18211e-22)
(0.168928 0.0158743 -1.18372e-20)
(0.166907 0.0194021 2.3693e-20)
(0.165091 0.0224542 -3.0661e-22)
(0.163482 0.0250463 5.55334e-22)
(0.162098 0.0272075 -1.03669e-20)
(0.161419 0.0294437 0)
(0.187323 -0.0593946 -4.54622e-21)
(0.186638 -0.0617742 0)
(0.18618 -0.0638704 -2.21946e-21)
(0.185928 -0.0655894 3.33647e-20)
(0.185868 -0.0668409 -3.6267e-20)
(0.185993 -0.067544 3.50651e-20)
(0.186283 -0.0676204 -3.53646e-20)
(0.186687 -0.0670156 -1.67016e-20)
(0.187172 -0.0656127 3.53187e-20)
(0.187654 -0.0633707 2.10825e-22)
(0.188058 -0.0602833 -1.48003e-20)
(0.188296 -0.0563701 7.04809e-21)
(0.188283 -0.0516904 -3.77466e-21)
(0.187948 -0.0463433 -5.06575e-21)
(0.187238 -0.0404627 -2.00686e-19)
(0.186131 -0.034207 2.0346e-19)
(0.184632 -0.0277463 -3.59881e-21)
(0.182778 -0.0212488 -2.06415e-21)
(0.180627 -0.0148687 4.47267e-21)
(0.178255 -0.00873679 -8.67063e-21)
(0.175745 -0.00295561 3.12642e-23)
(0.173181 0.00240208 1.28948e-20)
(0.170639 0.00729136 -6.60442e-21)
(0.168186 0.0116913 -1.19077e-20)
(0.165876 0.0156003 1.17427e-20)
(0.16375 0.0190315 -1.09172e-20)
(0.16183 0.0220041 1.13053e-20)
(0.160121 0.0245349 -5.99298e-22)
(0.158641 0.0266539 0)
(0.157878 0.0288762 1.42926e-21)
(0.185092 -0.0607432 4.7281e-21)
(0.184415 -0.0628766 -4.00874e-20)
(0.184007 -0.0647664 3.84254e-20)
(0.183805 -0.0662773 2.36704e-21)
(0.18379 -0.0673188 2.35803e-21)
(0.183956 -0.0678116 0)
(0.184268 -0.0676887 -2.30787e-21)
(0.184695 -0.0668779 -1.99017e-20)
(0.185181 -0.0652759 3.39048e-20)
(0.185649 -0.062859 -1.83142e-20)
(0.18602 -0.0596209 -1.00276e-21)
(0.186208 -0.0555868 7.31587e-21)
(0.186129 -0.0508212 -7.35518e-21)
(0.185714 -0.0454267 -2.04216e-22)
(0.184915 -0.0395377 -2.17784e-19)
(0.183711 -0.0333114 2.17697e-19)
(0.182113 -0.026914 1.56332e-22)
(0.180157 -0.0205083 -4.46916e-21)
(0.177904 -0.0142419 4.44533e-21)
(0.175431 -0.00823873 5.02418e-22)
(0.172821 -0.00259461 -6.45164e-21)
(0.170157 0.00262378 1.36928e-20)
(0.167516 0.00737676 -5.61048e-21)
(0.164963 0.0116477 6.84819e-22)
(0.162554 0.0154383 0)
(0.160329 0.0187641 -6.82642e-22)
(0.158311 0.0216459 -6.52429e-22)
(0.156505 0.0241019 9.64776e-21)
(0.154931 0.0261639 -8.83908e-21)
(0.154078 0.028348 -1.48642e-21)
(0.182516 -0.0619677 0)
(0.181848 -0.063866 -5.62048e-23)
(0.181489 -0.0655559 4.02106e-20)
(0.181335 -0.0668631 -4.09898e-20)
(0.181364 -0.067697 -3.97795e-20)
(0.181567 -0.0679809 6.21138e-20)
(0.181901 -0.0676585 -1.73225e-20)
(0.182344 -0.0666356 -2.23733e-23)
(0.182825 -0.064837 -2.30859e-21)
(0.183274 -0.062244 0)
(0.183608 -0.0588541 -8.09201e-21)
(0.183741 -0.0546986 1.57365e-20)
(0.183593 -0.0498467 -7.62677e-21)
(0.183098 -0.0444041 2.1369e-22)
(0.18221 -0.0385062 -2.32401e-19)
(0.180915 -0.032308 2.32489e-19)
(0.179222 -0.0259723 -1.63585e-22)
(0.177174 -0.0196563 -4.42357e-21)
(0.17483 -0.0135013 8.40215e-21)
(0.172267 -0.00762464 -3.97371e-21)
(0.169569 -0.0021158 0)
(0.166818 0.00296422 7.49346e-22)
(0.16409 0.00758049 -7.65869e-23)
(0.16145 0.0117203 -6.01018e-21)
(0.158953 0.0153884 1.46255e-20)
(0.156638 0.0186026 -9.84087e-21)
(0.154529 0.0213852 -9.0767e-21)
(0.152632 0.0237556 9.48605e-21)
(0.150969 0.0257487 -6.51915e-23)
(0.150021 0.0278745 0)
(0.179558 -0.063065 0)
(0.178904 -0.064736 -3.97539e-20)
(0.178595 -0.0662296 4.33e-20)
(0.178489 -0.0673355 3.97169e-20)
(0.178561 -0.0679629 -4.32444e-20)
(0.178797 -0.0680399 -2.31614e-20)
(0.179154 -0.067512 8.25791e-22)
(0.179606 -0.0662743 2.29848e-20)
(0.180079 -0.0642801 4.83142e-21)
(0.180503 -0.0615108 0)
(0.180795 -0.0579693 0)
(0.18087 -0.0536932 -6.8319e-21)
(0.180651 -0.0487567 8.36698e-21)
(0.180075 -0.0432679 0)
(0.179103 -0.0373626 -2.4581e-19)
(0.177719 -0.031194 2.45807e-19)
(0.175941 -0.0249207 0)
(0.173809 -0.0186944 4.07583e-21)
(0.171385 -0.0126503 -4.82135e-21)
(0.168746 -0.00689925 0)
(0.165973 -0.00152465 0)
(0.163149 0.00341773 -1.48177e-21)
(0.160347 0.00789739 4.52555e-21)
(0.157633 0.0119051 -3.02889e-22)
(0.155058 0.0154483 -4.16187e-21)
(0.152664 0.0185468 -8.62766e-21)
(0.150474 0.0212241 8.94285e-21)
(0.148493 0.0235011 8.06947e-21)
(0.146747 0.0254158 -8.4375e-21)
(0.145706 0.0274675 0)
(0.176183 -0.0640294 0)
(0.175549 -0.0654749 0)
(0.175291 -0.0667754 0)
(0.175235 -0.0676808 -4.20072e-20)
(0.175352 -0.0681007 2.05511e-20)
(0.175614 -0.0679729 2.51161e-20)
(0.175996 -0.0672293 2.72306e-21)
(0.176452 -0.0657781 2.05227e-20)
(0.176914 -0.0635885 -1.14578e-21)
(0.177308 -0.0606432 -1.98956e-20)
(0.177554 -0.0569519 -1.1339e-21)
(0.177568 -0.0525581 -2.11611e-21)
(0.177277 -0.0475405 -4.69891e-21)
(0.176623 -0.0420097 3.51955e-21)
(0.175568 -0.0361014 -2.57696e-19)
(0.174103 -0.0299664 2.57703e-19)
(0.172247 -0.0237587 2.56547e-21)
(0.170041 -0.0176247 -1.83648e-21)
(0.167549 -0.0116929 9.91536e-22)
(0.164847 -0.00606797 4.15767e-22)
(0.162014 -0.00082758 -5.87269e-21)
(0.15913 0.00397747 6.40084e-22)
(0.156269 0.0083207 5.17679e-21)
(0.153493 0.012196 -5.1232e-22)
(0.150855 0.0156132 3.56253e-21)
(0.148393 0.0185936 4.03947e-21)
(0.146131 0.0211617 -7.90653e-21)
(0.144076 0.02334 0)
(0.142255 0.0251694 0)
(0.141123 0.027135 0)
(0.17235 -0.0648486 -4.76911e-20)
(0.171744 -0.0660703 5.02547e-20)
(0.171541 -0.0671783 0)
(0.171538 -0.0678825 -2.36385e-20)
(0.171698 -0.068093 2.68877e-20)
(0.17199 -0.0677575 2.27505e-20)
(0.172393 -0.0667911 -2.9006e-20)
(0.17285 -0.0651285 0)
(0.173297 -0.0627436 -2.64302e-21)
(0.173659 -0.0596239 0)
(0.173855 -0.0557861 3.40213e-24)
(0.173807 -0.0512796 9.09866e-24)
(0.173444 -0.0461872 1.00301e-21)
(0.172713 -0.0406214 4.54158e-22)
(0.17158 -0.0347172 -2.682e-19)
(0.170041 -0.0286224 2.68184e-19)
(0.168115 -0.0224864 -3.15687e-22)
(0.165847 -0.0164493 -5.49433e-22)
(0.1633 -0.0106333 -4.23338e-23)
(0.160547 -0.00513687 -4.51383e-23)
(0.157668 -3.19389e-05 0)
(0.15474 0.00463533 6.66408e-22)
(0.151834 0.00884211 0)
(0.149011 0.012585 -2.76036e-21)
(0.146322 0.0158758 3.75748e-21)
(0.143806 0.0187372 2.69448e-21)
(0.141483 0.0211941 -3.07952e-21)
(0.139363 0.0232703 0)
(0.137475 0.0250096 6.88249e-21)
(0.136258 0.0268808 -7.25658e-21)
(0.168017 -0.0655063 0)
(0.167448 -0.0665052 7.0189e-23)
(0.167305 -0.0674197 5.3321e-20)
(0.167359 -0.0679197 -5.09998e-20)
(0.167561 -0.0679196 3.12375e-21)
(0.167887 -0.0673678 -6.11975e-21)
(0.168308 -0.0661754 2.9796e-21)
(0.168765 -0.0643028 0)
(0.169194 -0.061724 0)
(0.16952 -0.0584335 0)
(0.169665 -0.0544548 1.22607e-21)
(0.169554 -0.0498432 -7.47248e-21)
(0.16912 -0.044685 1.20513e-20)
(0.168314 -0.0390941 -5.89691e-21)
(0.167109 -0.0332041 -2.74755e-19)
(0.165502 -0.0271593 2.77826e-19)
(0.163517 -0.0211037 -3.48967e-21)
(0.161198 -0.015171 6.52062e-21)
(0.158609 -0.00947671 -4.38902e-21)
(0.15582 -0.00411292 -4.0389e-22)
(0.15291 0.00085382 -2.92377e-22)
(0.149953 0.00538183 0)
(0.147017 0.00945161 0)
(0.144162 0.0130621 -4.47248e-22)
(0.141436 0.0162267 6.85363e-22)
(0.138877 0.0189688 -2.50872e-22)
(0.136506 0.0213138 -4.38152e-21)
(0.134332 0.0232864 4.07747e-21)
(0.132387 0.0249329 1.02724e-22)
(0.131091 0.0267045 0)
(0.163138 -0.0659798 -5.25921e-20)
(0.162614 -0.0667597 4.87601e-20)
(0.162538 -0.0674757 2.30628e-20)
(0.162653 -0.0677659 -2.6833e-20)
(0.162901 -0.067554 -2.87734e-20)
(0.163263 -0.0667739 2.95022e-20)
(0.1637 -0.0653581 2.44654e-20)
(0.164155 -0.063276 -2.18802e-20)
(0.164564 -0.0605061 1.25961e-20)
(0.164852 -0.0570504 -1.13115e-20)
(0.164944 -0.0529391 1.09416e-20)
(0.164769 -0.0482329 -5.3587e-21)
(0.164265 -0.0430213 -3.92911e-21)
(0.163389 -0.0374186 2.31349e-22)
(0.162117 -0.0315564 -2.82434e-19)
(0.160452 -0.0255746 2.82413e-19)
(0.158418 -0.0196112 -1.4565e-22)
(0.156062 -0.0137932 -2.09923e-21)
(0.153444 -0.00822895 -1.21247e-21)
(0.150635 -0.00300425 3.02564e-21)
(0.14771 0.00181981 -1.70137e-21)
(0.144739 0.00620577 1.78591e-21)
(0.141789 0.0101372 -2.88909e-21)
(0.138917 0.0136149 2.55075e-21)
(0.136168 0.0166536 1.47278e-21)
(0.13358 0.0192769 -1.47141e-21)
(0.131173 0.0215103 -1.30923e-21)
(0.128955 0.0233791 1.48579e-21)
(0.126962 0.0249317 4.53516e-21)
(0.125597 0.026601 -4.33928e-21)
(0.157659 -0.0662419 -3.45671e-21)
(0.157188 -0.0668064 -5.47696e-20)
(0.157188 -0.0673158 6.02482e-20)
(0.157369 -0.0673911 0)
(0.157668 -0.0669593 -3.46406e-21)
(0.158067 -0.0659451 0)
(0.15852 -0.0643076 -3.31367e-21)
(0.158973 -0.0620182 2.45092e-20)
(0.159359 -0.0590625 -2.64139e-20)
(0.159607 -0.05545 1.41429e-21)
(0.159644 -0.0512178 -2.61751e-21)
(0.159406 -0.0464312 -1.1881e-21)
(0.158835 -0.0411822 -5.41297e-22)
(0.157893 -0.0355848 -2.40134e-22)
(0.156562 -0.0297678 -2.85438e-19)
(0.154848 -0.0238657 2.85429e-19)
(0.152778 -0.0180101 1.51181e-22)
(0.150397 -0.0123202 2.49979e-22)
(0.147766 -0.00689731 -3.47875e-22)
(0.144953 -0.0018206 0)
(0.142029 0.00285421 -1.88592e-22)
(0.139062 0.0070937 -2.07894e-21)
(0.136114 0.0108842 2.37433e-21)
(0.13324 0.0142281 8.72089e-23)
(0.130484 0.0171408 0)
(0.12788 0.019646 -4.4516e-24)
(0.125449 0.0217689 0)
(0.123199 0.0235348 7.56842e-22)
(0.121169 0.0249937 -6.88592e-22)
(0.119742 0.0265601 1.72693e-22)
(0.151517 -0.0662596 -5.44317e-20)
(0.151112 -0.0666052 5.71844e-20)
(0.151197 -0.0668996 9.6665e-23)
(0.151446 -0.0667566 3.21891e-20)
(0.151805 -0.0660915 -5.41041e-20)
(0.152241 -0.0648442 3.25746e-20)
(0.152711 -0.0629866 3.41101e-21)
(0.153159 -0.0604944 3.81625e-23)
(0.153521 -0.057361 0)
(0.153727 -0.0536039 -1.46054e-21)
(0.15371 -0.0492663 -7.52857e-21)
(0.153409 -0.0444178 1.15712e-20)
(0.152774 -0.0391522 5.38483e-22)
(0.151772 -0.0335819 -1.52864e-21)
(0.15039 -0.0278319 -2.83308e-19)
(0.148638 -0.0220308 2.86314e-19)
(0.146544 -0.0163023 -1.3594e-21)
(0.144154 -0.0107578 -2.01141e-22)
(0.141527 -0.00549095 2.64038e-21)
(0.138727 -0.000574086 -2.25443e-21)
(0.135821 0.0039424 1.94758e-22)
(0.132875 0.00802897 0)
(0.129947 0.0116744 1.65795e-22)
(0.127088 0.0148824 -8.97699e-23)
(0.12434 0.0176686 -3.57674e-22)
(0.121735 0.0200563 1.23465e-21)
(0.119293 0.0220698 -5.4368e-22)
(0.117024 0.0237343 1.57789e-22)
(0.114966 0.0251008 2.11107e-22)
(0.113488 0.0265655 -3.90497e-22)
(0.144634 -0.0659849 0)
(0.144313 -0.0661057 0)
(0.144489 -0.0661769 -3.38383e-20)
(0.144819 -0.0658076 2.7347e-20)
(0.14524 -0.0649023 0)
(0.145716 -0.0634243 -3.66412e-21)
(0.146202 -0.0613499 -3.61288e-21)
(0.146645 -0.0586623 -3.40645e-21)
(0.14698 -0.0553634 0)
(0.147143 -0.0514783 0)
(0.14707 -0.047056 -1.38548e-21)
(0.146708 -0.0421698 5.28625e-21)
(0.146012 -0.0369136 -5.80996e-21)
(0.144957 -0.0313979 -2.4117e-22)
(0.143534 -0.0257424 -2.80882e-19)
(0.141756 -0.0200684 2.80948e-19)
(0.139654 -0.0144914 1.34904e-22)
(0.137271 -0.00911404 -9.29405e-22)
(0.134665 -0.00402185 1.298e-21)
(0.131897 0.000719767 0)
(0.12903 0.00506581 0)
(0.126125 0.00899046 0)
(0.123235 0.0124847 0)
(0.120408 0.0155531 -2.55252e-22)
(0.117685 0.0182112 -1.30177e-22)
(0.115095 0.0204813 0)
(0.112656 0.0223867 -2.5436e-21)
(0.11038 0.0239518 2.06675e-21)
(0.108306 0.0252278 0)
(0.106784 0.026593 0)
(0.136922 -0.0653534 -3.98625e-21)
(0.136701 -0.0652418 0)
(0.13698 -0.0650852 0)
(0.1374 -0.0644754 0)
(0.137888 -0.0633304 0)
(0.138404 -0.0616246 0)
(0.138906 -0.0593402 3.6899e-21)
(0.139341 -0.0564693 1.78972e-21)
(0.139647 -0.0530226 -1.27712e-20)
(0.139764 -0.0490324 2.80644e-21)
(0.139636 -0.0445529 2.39858e-20)
(0.139214 -0.0396597 -1.61081e-20)
(0.138462 -0.0344464 7.02193e-22)
(0.137361 -0.0290195 4.09146e-21)
(0.135909 -0.0234925 -2.71846e-19)
(0.134119 -0.0179784 2.71803e-19)
(0.132025 -0.0125832 1.56422e-21)
(0.129669 -0.00740021 -5.56736e-22)
(0.127105 -0.00250629 -2.16564e-21)
(0.12439 0.0020403 1.42683e-21)
(0.121583 0.00619994 -6.038e-22)
(0.118739 0.00995041 3.1867e-22)
(0.115909 0.0132845 1.91125e-22)
(0.113135 0.0162076 2.60691e-22)
(0.110454 0.0187344 0)
(0.107896 0.020886 0)
(0.105476 0.0226839 0)
(0.103205 0.0241515 0)
(0.101126 0.0253394 0)
(0.0995719 0.026608 -3.5617e-22)
(0.128268 -0.0642782 8.21138e-21)
(0.128168 -0.063928 -3.27735e-20)
(0.128563 -0.0635313 3.40516e-20)
(0.12908 -0.062675 0)
(0.129636 -0.0612937 -3.20229e-20)
(0.130193 -0.0593662 3.70087e-20)
(0.130709 -0.0568839 -3.16915e-20)
(0.131132 -0.0538487 2.68128e-20)
(0.131405 -0.0502795 0)
(0.131474 -0.0462154 1.03979e-20)
(0.131289 -0.041715 -2.88145e-21)
(0.13081 -0.036855 -1.5597e-20)
(0.130009 -0.0317269 5.30863e-21)
(0.128873 -0.0264322 1.64557e-21)
(0.127403 -0.0210765 -2.58601e-19)
(0.125619 -0.015763 2.55868e-19)
(0.123552 -0.0105874 9.51279e-22)
(0.121244 -0.00563288 5.60703e-22)
(0.118746 -0.000967083 -1.0878e-21)
(0.116109 0.00335908 9.67092e-22)
(0.113387 0.00731144 -5.22048e-22)
(0.110629 0.0108712 -2.50586e-22)
(0.107881 0.0140328 -4.91278e-21)
(0.105182 0.0168016 3.93517e-21)
(0.102566 0.0191916 -4.67501e-21)
(0.100058 0.021222 5.30924e-21)
(0.0976735 0.022912 0)
(0.0954243 0.0242834 -5.61539e-21)
(0.0933529 0.0253853 5.43672e-21)
(0.091777 0.0265604 9.59359e-22)
(0.118531 -0.0626361 2.61845e-20)
(0.118573 -0.0620397 -3.40878e-20)
(0.119098 -0.0613914 -3.00624e-20)
(0.119715 -0.0602919 3.57251e-20)
(0.120341 -0.0586801 3.75534e-20)
(0.120936 -0.0565438 -7.45936e-20)
(0.121461 -0.0538845 5.22952e-20)
(0.121866 -0.0507136 -1.38477e-20)
(0.122101 -0.0470583 0)
(0.122119 -0.0429633 -1.21269e-20)
(0.121877 -0.0384904 1.09072e-20)
(0.121344 -0.0337159 -6.25462e-22)
(0.120501 -0.0287278 -1.94495e-21)
(0.119341 -0.0236204 2.7382e-21)
(0.117871 -0.0184898 -2.35657e-19)
(0.116112 -0.0134283 2.34461e-19)
(0.114096 -0.00852002 8.61724e-22)
(0.111863 -0.003837 -4.57459e-22)
(0.109457 0.000562637 -3.1404e-23)
(0.106927 0.00463565 -1.6944e-21)
(0.104318 0.00835329 1.70924e-21)
(0.101676 0.0117 6.43703e-22)
(0.099038 0.0146716 3.59973e-21)
(0.0964406 0.0172733 -9.55227e-21)
(0.0939132 0.0195174 1.28147e-20)
(0.0914788 0.021421 -6.31524e-21)
(0.0891509 0.0230006 -8.0467e-21)
(0.0869412 0.0242757 7.78918e-21)
(0.0848929 0.0252933 6.51205e-21)
(0.0833076 0.0263772 -8.12209e-21)
(0.107528 -0.0602457 4.09175e-20)
(0.107734 -0.059393 4.8085e-21)
(0.108393 -0.0584966 -5.72765e-21)
(0.109112 -0.0571605 -3.7182e-20)
(0.109803 -0.0553331 -4.35093e-21)
(0.11043 -0.0530124 6.39935e-21)
(0.110954 -0.0502103 5.7382e-23)
(0.111334 -0.0469475 0)
(0.111524 -0.0432585 0)
(0.111485 -0.0391927 -1.21693e-20)
(0.111187 -0.034813 1.38524e-20)
(0.110606 -0.0301938 6.29922e-22)
(0.109731 -0.0254169 0)
(0.108563 -0.020568 5.19554e-22)
(0.107113 -0.0157317 -2.05418e-19)
(0.105405 -0.0109878 2.04349e-19)
(0.103469 -0.00640762 3.42926e-22)
(0.101342 -0.0020513 0)
(0.0990638 0.00203313 3.16278e-23)
(0.096675 0.00581028 -2.3634e-21)
(0.0942153 0.0092568 2.20584e-21)
(0.0917221 0.0123602 -3.91704e-22)
(0.0892289 0.0151172 0)
(0.0867654 0.0175325 1.68777e-22)
(0.0843574 0.0196164 1.79479e-21)
(0.0820249 0.0213833 -1.12299e-21)
(0.0797794 0.0228465 1.05424e-20)
(0.0776325 0.0240227 -1.33382e-23)
(0.0756274 0.0249557 4.38187e-22)
(0.0740483 0.0259491 -8.18143e-21)
(0.0950077 -0.0568255 -3.82391e-20)
(0.0953922 -0.0557255 3.27212e-20)
(0.0961844 -0.0545903 0)
(0.0969958 -0.0530371 -3.4066e-20)
(0.0977414 -0.0510258 4.00731e-20)
(0.0983848 -0.0485649 -1.90808e-20)
(0.0988949 -0.0456764 3.13683e-20)
(0.0992352 -0.0423894 -1.44631e-20)
(0.099371 -0.0387442 0)
(0.099273 -0.0347928 0)
(0.0989197 -0.0305975 5.92635e-21)
(0.0982989 -0.0262278 -5.89841e-21)
(0.0974079 -0.0217575 0)
(0.0962541 -0.0172609 1.95924e-22)
(0.0948535 -0.0128095 -1.64332e-19)
(0.0932298 -0.00846858 1.64298e-19)
(0.0914118 -0.00429552 -3.63771e-23)
(0.0894318 -0.000337881 0)
(0.0873234 0.00336691 1.21468e-21)
(0.08512 0.00679146 -1.11654e-21)
(0.0828537 0.00991772 0)
(0.0805541 0.0127359 0)
(0.0782483 0.0152436 6.7771e-21)
(0.0759603 0.0174439 -1.27779e-20)
(0.0737113 0.0193452 5.42072e-21)
(0.071518 0.0209583 -1.24044e-20)
(0.0693899 0.0222931 1.38354e-20)
(0.0673377 0.0233629 0)
(0.0654036 0.0242072 -1.2993e-20)
(0.0638531 0.025107 1.0267e-20)
(0.08061 -0.0519286 -3.75098e-20)
(0.0811708 -0.0506095 3.64853e-20)
(0.0820787 -0.0492674 -3.86731e-20)
(0.0829598 -0.047545 6.32629e-23)
(0.0837335 -0.045414 4.22348e-22)
(0.0843691 -0.042893 5.69693e-20)
(0.0848427 -0.0400125 -1.77808e-20)
(0.0851272 -0.0368084 -1.95003e-21)
(0.0851985 -0.0333243 1.34339e-20)
(0.0850386 -0.0296126 -2.55513e-20)
(0.0846373 -0.0257315 1.20247e-20)
(0.0839927 -0.0217431 4.63061e-21)
(0.0831107 -0.0177101 -5.63425e-21)
(0.0820046 -0.0136929 2.0639e-21)
(0.0806935 -0.00974759 -1.1244e-19)
(0.0792007 -0.00592366 1.11799e-19)
(0.0775518 -0.00226326 -2.98641e-22)
(0.0757735 0.00119933 1.79559e-21)
(0.073892 0.00443757 -1.25581e-21)
(0.0719324 0.00743204 -5.29338e-21)
(0.0699182 0.0101698 1.16232e-20)