/*--------------------------------*- C++ -*----------------------------------*\
  =========                 |
  \\      /  F ield         | OpenFOAM: The Open Source CFD Toolbox
   \\    /   O peration     | Website:  https://openfoam.org
    \\  /    A nd           | Version:  12
     \\/     M anipulation  |
\*---------------------------------------------------------------------------*/
FoamFile
{
    format      ascii;
    class       volVectorField;
    location    "260";
    object      UMean;
}
// * * * * * * * * * * * * * * * * * * * * * * * * * * * * * * * * * * * * * //

dimensions      [0 1 -1 0 0 0 0];

internalField   nonuniform List<vector> 
6750
(
(0.200072 -0.00307733 0)
(0.20037 -0.0093476 0)
(0.200665 -0.015078 0)
(0.20092 -0.020355 0)
(0.20082 -0.0252813 0)
(0.200037 -0.00346643 0)
(0.200285 -0.00996716 0)
(0.200496 -0.0156372 0)
(0.200586 -0.0206411 0)
(0.200485 -0.0250751 0)
(0.200026 -0.00363233 0)
(0.200131 -0.0102041 0)
(0.200155 -0.0157534 0)
(0.200044 -0.0204841 0)
(0.199815 -0.0245053 0)
(0.20001 -0.00366736 0)
(0.199962 -0.0101618 0)
(0.199791 -0.015527 0)
(0.199498 -0.0200038 0)
(0.199137 -0.0237372 0)
(0.199995 -0.00360094 0)
(0.199805 -0.00988903 0)
(0.19945 -0.0150139 0)
(0.198979 -0.0192422 0)
(0.19847 -0.022743 0)
(0.199983 -0.00345042 0)
(0.199662 -0.0094202 0)
(0.19913 -0.0142473 0)
(0.198476 -0.0182087 0)
(0.197802 -0.0214818 0)
(0.199973 -0.00323013 0)
(0.199528 -0.00878267 0)
(0.198821 -0.0132524 0)
(0.197981 -0.016913 0)
(0.197128 -0.019939 0)
(0.199963 -0.00295115 0)
(0.199401 -0.00799938 0)
(0.198525 -0.0120531 0)
(0.197498 -0.0153724 0)
(0.196458 -0.0181209 0)
(0.199955 -0.00262317 0)
(0.199282 -0.00709307 0)
(0.198245 -0.0106778 0)
(0.197039 -0.0136152 0)
(0.195815 -0.0160528 0)
(0.199947 -0.00225608 0)
(0.199175 -0.0060886 0)
(0.197991 -0.00916055 0)
(0.19662 -0.0116806 0)
(0.195226 -0.0137766 0)
(0.199941 -0.00186035 0)
(0.199083 -0.00501298 0)
(0.197772 -0.00754001 0)
(0.196258 -0.00961544 0)
(0.194713 -0.0113453 0)
(0.199936 -0.00144677 0)
(0.199009 -0.00389409 0)
(0.197595 -0.00585698 0)
(0.195965 -0.00747054 0)
(0.194297 -0.00881755 0)
(0.199932 -0.00102578 0)
(0.198955 -0.00275905 0)
(0.197464 -0.00415139 0)
(0.195748 -0.00529601 0)
(0.193987 -0.00625246 0)
(0.199928 -0.000606721 0)
(0.198923 -0.00163274 0)
(0.197381 -0.00245946 0)
(0.195609 -0.00313764 0)
(0.193788 -0.00370452 0)
(0.199919 -0.000201337 0)
(0.198918 -0.000534883 0)
(0.197344 -0.000810022 0)
(0.195545 -0.00103364 0)
(0.193694 -0.00122037 0)
(0.199919 0.000201312 0)
(0.198918 0.000534957 0)
(0.197344 0.00081023 0)
(0.195545 0.00103399 0)
(0.193694 0.00122084 0)
(0.199928 0.000606696 0)
(0.198923 0.00163281 0)
(0.197381 0.00245967 0)
(0.195609 0.00313799 0)
(0.193788 0.00370499 0)
(0.199932 0.00102576 0)
(0.198955 0.00275912 0)
(0.197464 0.0041516 0)
(0.195748 0.00529636 0)
(0.193987 0.00625293 0)
(0.199936 0.00144675 0)
(0.199009 0.00389417 0)
(0.197595 0.00585719 0)
(0.195965 0.00747089 0)
(0.194297 0.00881802 0)
(0.199941 0.00186033 0)
(0.199083 0.00501306 0)
(0.197772 0.00754023 0)
(0.196258 0.0096158 0)
(0.194713 0.0113457 0)
(0.199947 0.00225606 0)
(0.199175 0.00608868 0)
(0.197991 0.00916076 0)
(0.19662 0.0116809 0)
(0.195226 0.0137771 0)
(0.199955 0.00262316 0)
(0.199282 0.00709316 0)
(0.198245 0.010678 0)
(0.197039 0.0136156 0)
(0.195815 0.0160533 0)
(0.199963 0.00295114 0)
(0.199401 0.00799947 0)
(0.198525 0.0120533 0)
(0.197498 0.0153728 0)
(0.196458 0.0181214 0)
(0.199973 0.00323013 0)
(0.199528 0.00878277 0)
(0.198821 0.0132526 0)
(0.197981 0.0169134 0)
(0.197128 0.0199394 0)
(0.199983 0.00345043 0)
(0.199662 0.00942031 0)
(0.19913 0.0142476 0)
(0.198476 0.018209 0)
(0.197802 0.0214822 0)
(0.199995 0.00360096 0)
(0.199805 0.00988914 0)
(0.19945 0.0150142 0)
(0.198979 0.0192426 0)
(0.19847 0.0227435 0)
(0.20001 0.00366738 0)
(0.199962 0.0101619 0)
(0.199791 0.0155273 0)
(0.199498 0.0200042 0)
(0.199137 0.0237376 0)
(0.200026 0.00363236 0)
(0.200131 0.0102042 0)
(0.200155 0.0157536 0)
(0.200044 0.0204844 0)
(0.199815 0.0245057 0)
(0.200037 0.00346647 0)
(0.200285 0.00996728 0)
(0.200496 0.0156374 0)
(0.200586 0.0206414 0)
(0.200485 0.0250754 0)
(0.200072 0.00307736 0)
(0.20037 0.00934771 0)
(0.200665 0.0150782 0)
(0.20092 0.0203553 0)
(0.20082 0.0252816 0)
(0.198901 -0.0362509 0)
(0.197365 -0.0413859 0)
(0.196083 -0.0460533 0)
(0.195233 -0.0502105 8.35398e-23)
(0.194672 -0.0537576 0)
(0.194343 -0.056641 0)
(0.194237 -0.0588008 -6.0418e-21)
(0.194339 -0.0601482 6.10617e-21)
(0.194626 -0.0605754 5.34242e-23)
(0.195034 -0.0600249 3.37369e-21)
(0.195533 -0.0583606 4.66263e-23)
(0.196045 -0.0554656 2.71296e-23)
(0.196493 -0.0513927 -1.77857e-21)
(0.196793 -0.0462095 -1.78441e-21)
(0.196872 -0.0400566 -4.1662e-21)
(0.196677 -0.0331405 4.16771e-21)
(0.196179 -0.0257162 -1.63859e-21)
(0.195379 -0.0180609 -1.46208e-21)
(0.194307 -0.010451 1.85747e-22)
(0.193013 -0.00313619 2.19949e-22)
(0.191555 0.00368103 2.68834e-21)
(0.190008 0.00988573 -3.75559e-23)
(0.188457 0.0153621 3.87731e-21)
(0.186962 0.0200612 -3.84303e-21)
(0.185574 0.0239791 0)
(0.184334 0.0271422 0)
(0.183272 0.0295961 -3.43799e-23)
(0.182413 0.0313981 0)
(0.181784 0.0326127 0)
(0.181363 0.0332764 0)
(0.198109 -0.0393945 0)
(0.19673 -0.0444334 0)
(0.195717 -0.0486916 0)
(0.195041 -0.0523719 -7.89985e-23)
(0.19459 -0.0554641 0)
(0.194349 -0.057933 0)
(0.194316 -0.0597128 6.76515e-21)
(0.194478 -0.0607123 -6.94613e-21)
(0.194807 -0.0608325 -5.03026e-23)
(0.195242 -0.0600283 0)
(0.19575 -0.058143 0)
(0.196249 -0.0551164 -3.26189e-21)
(0.19667 -0.0509967 3.27215e-21)
(0.196936 -0.0458537 0)
(0.196981 -0.0398216 -1.08173e-20)
(0.196756 -0.033091 1.08186e-20)
(0.196237 -0.0258934 0)
(0.195429 -0.0184807 2.86328e-21)
(0.19436 -0.011101 -2.87927e-21)
(0.193077 -0.00398059 0)
(0.191642 0.00269587 0)
(0.19012 0.00880805 3.52618e-23)
(0.188578 0.0142534 -3.93358e-21)
(0.187082 0.0189807 3.96039e-21)
(0.185681 0.0229776 0)
(0.184413 0.0262613 0)
(0.183306 0.0288684 3.24116e-23)
(0.182382 0.0308472 0)
(0.18167 0.0322586 0)
(0.181175 0.0331672 0)
(0.197359 -0.0418215 0)
(0.196276 -0.0463794 0)
(0.195433 -0.0502475 0)
(0.194844 -0.0536197 7.47231e-21)
(0.194463 -0.0564536 -7.5547e-21)
(0.194292 -0.0586913 7.89498e-21)
(0.194327 -0.0602555 -7.96918e-21)
(0.19455 -0.0610533 1.17645e-22)
(0.194929 -0.0609943 0)
(0.195405 -0.0600335 0)
(0.19594 -0.0580066 -1.17244e-22)
(0.196448 -0.0548923 0)
(0.196862 -0.0507305 0)
(0.197106 -0.0455935 -2.54446e-23)
(0.197113 -0.0396137 -1.71715e-20)
(0.196841 -0.032975 1.71724e-20)
(0.196269 -0.0258978 2.12015e-23)
(0.195405 -0.0186198 0)
(0.194281 -0.0113746 0)
(0.192946 -0.00437341 6.77824e-23)
(0.191463 0.00220983 0)
(0.189897 0.00824319 0)
(0.188316 0.0136448 -6.30024e-23)
(0.18678 0.0183634 -3.0432e-21)
(0.185337 0.0223836 3.01488e-21)
(0.184026 0.0257182 -2.23028e-21)
(0.18287 0.0283987 2.19565e-21)
(0.181888 0.0304673 0)
(0.181111 0.0319854 0)
(0.180603 0.0330743 0)
(0.196693 -0.0439978 0)
(0.195817 -0.0481608 -1.71538e-20)
(0.195071 -0.0517184 8.5939e-21)
(0.19455 -0.0548222 1.80994e-20)
(0.194239 -0.0574115 -1.83226e-20)
(0.194139 -0.0594201 9.10929e-21)
(0.194241 -0.0607679 0)
(0.194531 -0.0613635 2.85004e-22)
(0.194959 -0.0611309 0)
(0.195488 -0.0600067 0)
(0.196056 -0.0578431 4.17078e-21)
(0.196583 -0.0546433 -3.93845e-21)
(0.196998 -0.0504405 0)
(0.197222 -0.04531 2.67135e-23)
(0.19719 -0.0393823 -2.29164e-20)
(0.196859 -0.0328349 2.29198e-20)
(0.196214 -0.025878 -2.22607e-23)
(0.195266 -0.0187363 0)
(0.194051 -0.0116296 -2.15588e-21)
(0.192624 -0.00475625 2.01755e-21)
(0.19105 0.00171975 5.0737e-23)
(0.189399 0.00767492 0)
(0.187739 0.0130273 -7.75083e-23)
(0.186128 0.0177293 0)
(0.184617 0.0217649 1.99561e-21)
(0.183242 0.0251441 -3.54058e-21)
(0.182025 0.0278937 2.82354e-21)
(0.180981 0.0300499 6.65107e-22)
(0.18014 0.0316704 -1.88874e-21)
(0.179638 0.0329378 0)
(0.196002 -0.0460677 0)
(0.195253 -0.0498907 2.05733e-20)
(0.194587 -0.0531615 -2.01981e-20)
(0.194138 -0.0560031 0)
(0.193899 -0.0583497 0)
(0.193869 -0.0601307 3.33499e-22)
(0.194039 -0.0612641 0)
(0.194393 -0.0616594 -2.98501e-22)
(0.194877 -0.0612558 4.63324e-21)
(0.195458 -0.059963 -4.71893e-21)
(0.19606 -0.0576657 -4.35837e-21)
(0.196608 -0.0543763 4.24392e-21)
(0.197022 -0.0501268 1.18398e-22)
(0.197222 -0.0449953 -5.3687e-23)
(0.197145 -0.0391109 -2.80465e-20)
(0.196747 -0.032646 2.80514e-20)
(0.196017 -0.0258017 3.72362e-23)
(0.19497 -0.0187912 -6.44666e-23)
(0.193645 -0.0118216 1.84104e-21)
(0.192104 -0.00507916 -1.77201e-21)
(0.190415 0.00128235 -1.4348e-21)
(0.188653 0.00714727 1.37178e-21)
(0.186886 0.0124373 8.12282e-23)
(0.185177 0.0171077 0)
(0.183575 0.0211432 -3.40053e-23)
(0.182117 0.0245516 0)
(0.180826 0.0273569 0)
(0.17971 0.0295893 -1.00117e-21)
(0.1788 0.0313014 9.77641e-22)
(0.1783 0.0327371 0)
(0.195219 -0.0480364 2.253e-20)
(0.194552 -0.0515387 -3.53366e-20)
(0.193962 -0.0545376 1.15874e-20)
(0.193585 -0.0571302 0)
(0.193418 -0.0592457 1.15422e-20)
(0.193458 -0.060809 -1.12828e-20)
(0.193695 -0.0617365 1.07801e-20)
(0.194113 -0.0619401 -1.1137e-20)
(0.194653 -0.0613681 0)
(0.195282 -0.0599069 -3.1849e-22)
(0.195915 -0.057478 4.52203e-21)
(0.196479 -0.0540948 -2.46776e-21)
(0.196887 -0.049791 -4.52732e-22)
(0.197059 -0.0446474 -1.82831e-21)
(0.196929 -0.0387929 -3.25232e-20)
(0.196459 -0.0323956 3.25211e-20)
(0.195637 -0.0256496 -1.12653e-21)
(0.194482 -0.0187582 2.94386e-22)
(0.193039 -0.0119177 -6.05574e-22)
(0.191372 -0.00530311 1.50867e-21)
(0.189556 0.000941457 5.51724e-23)
(0.187668 0.00670773 0)
(0.18578 0.0119228 -1.20706e-21)
(0.183956 0.0165454 1.21374e-21)
(0.182247 0.0205617 -5.9516e-22)
(0.180691 0.0239792 6.03411e-22)
(0.179312 0.0268196 -8.93813e-24)
(0.178115 0.029109 -5.49997e-23)
(0.177126 0.0308942 -2.98955e-22)
(0.176614 0.0324761 3.80966e-22)
(0.194303 -0.0498929 -1.23903e-20)
(0.193691 -0.0530916 1.39926e-20)
(0.193173 -0.0558384 1.38614e-20)
(0.192868 -0.0581989 -1.40508e-20)
(0.192771 -0.0600965 1.2877e-20)
(0.192879 -0.0614525 -1.38182e-20)
(0.193184 -0.0621827 -4.23933e-22)
(0.193662 -0.0622033 0)
(0.194255 -0.0614629 5.53385e-21)
(0.194927 -0.0598348 -8.02033e-23)
(0.195587 -0.0572752 -1.2959e-22)
(0.196159 -0.0537937 -4.98791e-21)
(0.196554 -0.0494277 -1.80809e-21)
(0.196691 -0.0442608 2.78672e-21)
(0.196505 -0.0384224 -3.70593e-20)
(0.195957 -0.0320777 3.56112e-20)
(0.195039 -0.025415 1.57078e-21)
(0.193773 -0.0186297 -1.07741e-21)
(0.192209 -0.0119084 -1.16681e-21)
(0.190413 -0.00541635 2.63076e-22)
(0.188465 0.000711332 2.06498e-22)
(0.186445 0.00637376 5.74657e-22)
(0.184428 0.0115037 0)
(0.182481 0.0160642 -3.8069e-23)
(0.180655 0.0200434 2.35107e-22)
(0.178992 0.0234497 -2.12846e-22)
(0.177513 0.0263037 5.77811e-22)
(0.176225 0.0286287 -5.48975e-22)
(0.175149 0.0304666 -2.47074e-22)
(0.174607 0.0321667 2.95813e-22)
(0.19322 -0.0516377 0)
(0.192647 -0.0545541 1.35889e-20)
(0.192198 -0.0570698 -1.65275e-20)
(0.191962 -0.059214 1.53367e-20)
(0.191934 -0.0609052 -1.46555e-20)
(0.192108 -0.0620626 1.3025e-20)
(0.192479 -0.0626018 -1.32067e-20)
(0.19301 -0.0624468 -8.39559e-22)
(0.193656 -0.0615328 -3.97256e-22)
(0.194361 -0.0597406 -3.71439e-22)
(0.195041 -0.0570492 -3.33913e-22)
(0.195614 -0.0534644 1.51404e-22)
(0.195989 -0.0490281 -2.12281e-21)
(0.196084 -0.0438278 1.14973e-21)
(0.195835 -0.0379931 -3.82845e-20)
(0.195207 -0.0316876 3.96816e-20)
(0.194192 -0.0250949 2.90945e-22)
(0.192816 -0.0184034 -7.53691e-22)
(0.191131 -0.0117917 2.40654e-23)
(0.189209 -0.00541624 7.32444e-23)
(0.18713 0.000596177 1.20287e-24)
(0.184978 0.00615182 -1.6133e-23)
(0.182832 0.0111893 -5.95166e-23)
(0.180758 0.0156758 9.39972e-22)
(0.178812 0.0196025 -1.00589e-21)
(0.177034 0.0229792 1.32004e-21)
(0.175448 0.0258264 -1.24055e-21)
(0.174061 0.028166 1.30951e-21)
(0.172893 0.0300361 -1.54922e-21)
(0.172302 0.0318248 0)
(0.191938 -0.0532771 0)
(0.191396 -0.0559329 1.0403e-21)
(0.191013 -0.0582364 -1.40499e-20)
(0.190843 -0.0601778 3.86597e-22)
(0.190881 -0.0616721 1.61877e-20)
(0.191121 -0.0626375 9.52515e-22)
(0.191554 -0.0629897 9.55506e-22)
(0.192132 -0.0626634 -6.00828e-21)
(0.192824 -0.0615711 7.44494e-21)
(0.193556 -0.059618 -9.06163e-24)
(0.194249 -0.0567909 -2.70091e-21)
(0.194814 -0.053097 2.71714e-21)
(0.19516 -0.0485832 -8.78657e-22)
(0.195207 -0.04334 1.02119e-21)
(0.194891 -0.0374985 -4.11775e-20)
(0.19418 -0.0312207 4.1172e-20)
(0.193068 -0.0246863 3.52484e-22)
(0.191584 -0.018078 -3.92117e-22)
(0.189783 -0.011567 1.60873e-22)
(0.187738 -0.00530204 -2.03184e-22)
(0.185534 0.000597772 -3.08572e-23)
(0.183256 0.00604544 -6.69843e-22)
(0.180983 0.0109852 6.93932e-22)
(0.178785 0.0153887 1.48361e-22)
(0.176718 0.0192502 9.9933e-23)
(0.174825 0.0225814 -2.32735e-21)
(0.17313 0.0254035 -1.47308e-22)
(0.171639 0.0277379 2.71397e-21)
(0.170373 0.0296208 0)
(0.169718 0.0314685 0)
(0.190428 -0.0548177 0)
(0.189912 -0.0572331 -1.8795e-20)
(0.189591 -0.0593403 3.87624e-22)
(0.189487 -0.0610899 4.89176e-22)
(0.189588 -0.0623949 3.38151e-20)
(0.18989 -0.0631733 -1.74057e-20)
(0.190379 -0.0633426 -9.98587e-22)
(0.191003 -0.0628434 0)
(0.191732 -0.06157 6.52136e-21)
(0.192483 -0.0594559 -6.64777e-21)
(0.193179 -0.0564892 2.84551e-21)
(0.193728 -0.0526811 -3.93676e-22)
(0.194038 -0.048083 -2.48174e-21)
(0.194031 -0.0427892 5.73401e-23)
(0.193645 -0.0369321 -4.22638e-20)
(0.192848 -0.0306726 4.22763e-20)
(0.191641 -0.0241871 -1.94444e-23)
(0.190053 -0.0176529 -2.32057e-22)
(0.188142 -0.0112349 2.72971e-22)
(0.185982 -0.00507457 -8.41206e-23)
(0.183661 0.000715824 9.48827e-22)
(0.181263 0.00605565 -9.43055e-22)
(0.178871 0.0108945 0)
(0.176555 0.0152083 -1.55093e-22)
(0.174371 0.0189946 3.34398e-21)
(0.172364 0.0222672 -7.00084e-21)
(0.17056 0.0250484 -1.2843e-22)
(0.168965 0.02736 -1.52297e-22)
(0.167598 0.0292376 3.37664e-21)
(0.166867 0.0311165 0)
(0.188659 -0.056266 -2.54228e-21)
(0.188166 -0.0584586 0)
(0.187907 -0.0603818 -1.19694e-21)
(0.187866 -0.0619483 1.78728e-20)
(0.188029 -0.0630692 -1.94838e-20)
(0.18839 -0.0636637 1.80739e-20)
(0.188927 -0.0636534 -1.81937e-20)
(0.189594 -0.062975 -8.04093e-21)
(0.190351 -0.0615191 1.6659e-20)
(0.191114 -0.0592425 -3.33165e-22)
(0.191804 -0.0561325 -6.42692e-21)
(0.192328 -0.0522053 2.55791e-21)
(0.192595 -0.0475175 -1.51743e-21)
(0.192528 -0.0421669 -1.52937e-21)
(0.192068 -0.0362874 -4.18981e-20)
(0.191187 -0.030039 4.2479e-20)
(0.189886 -0.0235951 -3.566e-22)
(0.188199 -0.0171281 1.70372e-22)
(0.186185 -0.0107967 1.4205e-23)
(0.183919 -0.00473604 1.21381e-21)
(0.181489 0.000948137 5.25223e-22)
(0.178982 0.00618104 -3.13148e-21)
(0.17648 0.0109173 1.81884e-21)
(0.174054 0.0151368 4.45404e-21)
(0.171761 0.0188404 -4.39233e-21)
(0.169646 0.0220442 4.65321e-21)
(0.167735 0.0247715 -4.97954e-21)
(0.166037 0.027045 3.3112e-22)
(0.164571 0.0289013 0)
(0.163755 0.0307865 -4.01401e-22)
(0.1866 -0.0576269 2.64403e-21)
(0.18613 -0.0596108 -2.25734e-20)
(0.185932 -0.0613594 2.1617e-20)
(0.185953 -0.0627486 1.29579e-21)
(0.186175 -0.0636885 1.27059e-21)
(0.186592 -0.0640993 0)
(0.187169 -0.0639113 -1.20722e-21)
(0.187875 -0.0630457 -9.79725e-21)
(0.188651 -0.0614071 1.62595e-20)
(0.189418 -0.0589649 -8.53783e-21)
(0.190094 -0.0557076 -4.2101e-22)
(0.190585 -0.0516574 2.6403e-21)
(0.190803 -0.0468758 -2.65448e-21)
(0.190671 -0.0414642 -5.68652e-23)
(0.190136 -0.0355579 -4.11393e-20)
(0.18917 -0.0293159 4.11271e-20)
(0.187779 -0.0229087 8.64591e-24)
(0.185999 -0.0165039 2.29218e-22)
(0.183889 -0.0102546 -2.2787e-22)
(0.181526 -0.00428968 -7.43479e-23)
(0.178999 0.00129108 2.07996e-21)
(0.176394 0.00641833 -4.82951e-21)
(0.173793 0.0110513 2.13246e-21)
(0.171266 0.0151738 -3.99641e-22)
(0.168873 0.0187894 0)
(0.166657 0.0219165 3.4235e-22)
(0.164646 0.0245796 3.44742e-22)
(0.162849 0.0268026 -5.84138e-21)
(0.161287 0.0286239 5.41317e-21)
(0.160381 0.030494 4.17399e-22)
(0.184217 -0.058903 0)
(0.183773 -0.0606888 -6.64748e-23)
(0.183635 -0.0622685 2.29399e-20)
(0.183716 -0.0634835 -2.33854e-20)
(0.183996 -0.0642433 -2.19249e-20)
(0.184463 -0.06447 3.38935e-20)
(0.185079 -0.0641012 -9.31636e-21)
(0.185816 -0.063042 -3.19008e-23)
(0.186603 -0.0612197 -1.13317e-21)
(0.187367 -0.0586083 0)
(0.18802 -0.0552007 -3.2678e-21)
(0.188472 -0.0510245 6.00839e-21)
(0.188634 -0.0461468 -2.73147e-21)
(0.188434 -0.0406721 5.95035e-23)
(0.187821 -0.0347368 -3.86824e-20)
(0.186772 -0.0284991 3.86934e-20)
(0.185295 -0.0221262 -9.04568e-24)
(0.183427 -0.0157811 5.02041e-22)
(0.18123 -0.00961116 -1.38626e-21)
(0.178781 -0.00373942 8.80564e-22)
(0.176168 0.00173998 0)
(0.173476 0.00676275 -4.34023e-22)
(0.170788 0.0112924 -8.48306e-23)
(0.168172 0.0153162 4.16878e-21)
(0.165689 0.0188403 -1.085e-20)
(0.163382 0.0218851 7.54523e-21)
(0.161279 0.0244764 7.68884e-21)
(0.159388 0.0266392 -7.9777e-21)
(0.157736 0.0284144 -7.72468e-23)
(0.156738 0.0302515 0)
(0.181477 -0.0600939 0)
(0.18106 -0.061688 -2.34345e-20)
(0.180983 -0.0631014 2.55159e-20)
(0.181124 -0.0641429 2.27644e-20)
(0.181458 -0.0647216 -2.48055e-20)
(0.181971 -0.0647635 -1.26673e-20)
(0.182624 -0.064206 8.20714e-22)
(0.183383 -0.0629483 1.21336e-20)
(0.184176 -0.0609403 2.38766e-21)
(0.184928 -0.0581567 0)
(0.185551 -0.0545963 0)
(0.185956 -0.050293 -2.39731e-21)
(0.186058 -0.0453186 2.95235e-21)
(0.185787 -0.039781 0)
(0.185095 -0.0338174 -3.47644e-20)
(0.183965 -0.0275845 3.47613e-20)
(0.182407 -0.0212461 0)
(0.180459 -0.0149604 -7.63742e-22)
(0.178183 -0.00886922 9.5307e-22)
(0.175659 -0.00308975 0)
(0.172971 0.00228928 0)
(0.170206 0.00720833 9.95577e-22)
(0.167442 0.0116348 -3.96947e-21)
(0.164751 0.015559 -2.46335e-22)
(0.162189 0.0189896 4.03116e-21)
(0.159801 0.0219485 9.48311e-21)
(0.157614 0.0244625 -9.93913e-21)
(0.155638 0.0265578 -9.04408e-21)
(0.153901 0.028278 9.35329e-21)
(0.152815 0.0300683 0)
(0.178339 -0.0611959 0)
(0.177955 -0.0625987 0)
(0.177939 -0.0638468 0)
(0.178139 -0.0647134 -2.45994e-20)
(0.178529 -0.0651074 1.22869e-20)
(0.17908 -0.0649629 1.4354e-20)
(0.179768 -0.0642055 1.50589e-21)
(0.180542 -0.0627472 1.05552e-20)
(0.181334 -0.0605504 -1.15298e-21)
(0.182067 -0.0575923 -9.64583e-21)
(0.182653 -0.0538781 -4.85862e-22)
(0.183006 -0.0494481 -8.0135e-22)
(0.183042 -0.044379 -1.37318e-21)
(0.182698 -0.0387812 1.01373e-21)
(0.181929 -0.0327925 -2.91996e-20)
(0.18072 -0.0265676 2.92061e-20)
(0.179085 -0.0202667 -3.1506e-22)
(0.177065 -0.0140429 1.8721e-22)
(0.174722 -0.00803206 -3.53281e-22)
(0.172133 -0.00234573 -2.52899e-22)
(0.169383 0.00293264 4.66341e-21)
(0.166557 0.00774796 6.20199e-22)
(0.163732 0.0120712 -5.05657e-21)
(0.160977 0.0158955 7.4507e-22)
(0.158348 0.0192314 -4.96129e-21)
(0.155891 0.022102 -6.59939e-21)
(0.15363 0.0245352 1.18824e-20)
(0.151577 0.026558 0)
(0.149763 0.0282167 0)
(0.148593 0.0299497 0)
(0.174761 -0.062198 -2.93702e-20)
(0.174415 -0.0634088 3.09694e-20)
(0.174462 -0.0644897 0)
(0.174723 -0.0651779 -1.41131e-20)
(0.175164 -0.0653826 1.59952e-20)
(0.175754 -0.065045 1.29086e-20)
(0.176471 -0.0640787 -1.6399e-20)
(0.177255 -0.0624179 0)
(0.17804 -0.0600292 -1.33188e-21)
(0.178747 -0.0568952 0)
(0.17929 -0.0530281 1.60536e-25)
(0.179584 -0.0484742 6.5887e-24)
(0.179552 -0.0433147 3.12138e-22)
(0.179133 -0.0376624 1.05315e-22)
(0.178287 -0.0316548 -2.18563e-20)
(0.177004 -0.0254444 2.18381e-20)
(0.175299 -0.0191869 3.82872e-23)
(0.173215 -0.0130299 1.57793e-22)
(0.170814 -0.00710339 -4.5649e-23)
(0.168173 -0.00151307 -4.92013e-23)
(0.165374 0.00366279 0)
(0.1625 0.00837338 -6.91189e-22)
(0.159627 0.0125929 0)
(0.156822 0.0163169 5.08781e-21)
(0.154139 0.0195574 -6.51295e-21)
(0.151623 0.0223388 -6.03089e-21)
(0.149299 0.024689 6.68135e-21)
(0.147179 0.026636 0)
(0.145296 0.0282288 -1.03319e-20)
(0.144047 0.029897 1.12378e-20)
(0.170696 -0.0630846 0)
(0.170394 -0.064101 8.36216e-23)
(0.170507 -0.0650106 3.30703e-20)
(0.170831 -0.065514 -3.15459e-20)
(0.171319 -0.0655246 1.89368e-21)
(0.17195 -0.0649825 -3.5867e-21)
(0.17269 -0.0638012 1.67653e-21)
(0.173479 -0.0619353 0)
(0.17425 -0.0593528 0)
(0.174924 -0.0560434 0)
(0.175418 -0.0520264 5.2671e-22)
(0.17565 -0.0473541 -2.49756e-21)
(0.175547 -0.0421117 3.80384e-21)
(0.175052 -0.0364136 -1.3633e-21)
(0.174132 -0.0303968 -1.21524e-20)
(0.172779 -0.0242104 1.22811e-20)
(0.171011 -0.0180053 7.65373e-22)
(0.168873 -0.0119232 -2.7245e-21)
(0.166426 -0.00608759 2.22888e-21)
(0.163745 -0.000598363 3.25443e-22)
(0.160911 0.00447138 4.34325e-22)
(0.158003 0.0090749 0)
(0.155096 0.0131894 0)
(0.152254 0.0168124 9.20697e-22)
(0.14953 0.0199573 -2.002e-21)
(0.146968 0.0226488 1.06668e-21)
(0.144592 0.0249151 1.59113e-20)
(0.142414 0.0267848 -1.4501e-20)
(0.140471 0.0283089 1.19588e-22)
(0.13915 0.0299077 0)
(0.16609 -0.0638323 -3.36682e-20)
(0.165838 -0.0646538 3.12304e-20)
(0.166021 -0.0653836 1.45713e-20)
(0.166409 -0.0656935 -1.69322e-20)
(0.166947 -0.0655037 -1.73881e-20)
(0.167616 -0.0647435 1.78016e-20)
(0.168375 -0.0633452 1.37977e-20)
(0.169164 -0.061271 -1.23668e-20)
(0.169915 -0.0584942 6.33386e-21)
(0.170551 -0.055012 -5.65898e-21)
(0.170991 -0.0508509 4.42961e-21)
(0.171157 -0.0460688 -2.45397e-21)
(0.17098 -0.0407544 -1.33205e-21)
(0.170411 -0.0350232 4.26894e-23)
(0.169419 -0.0290104 -7.48426e-22)
(0.168002 -0.0228613 7.22822e-22)
(0.16618 -0.0167212 4.76115e-23)
(0.163997 -0.0107251 1.38408e-21)
(0.161516 -0.00498998 1.88593e-21)
(0.158809 0.000390551 -3.08293e-21)
(0.155954 0.00534848 3.60397e-21)
(0.153027 0.00984103 -3.43495e-21)
(0.150101 0.0138481 1.03192e-20)
(0.147236 0.0173689 -8.96491e-21)
(0.144485 0.0204177 -8.34696e-21)
(0.141889 0.0230193 8.14085e-21)
(0.139471 0.0252016 9.29992e-21)
(0.137247 0.0269934 -1.01456e-20)
(0.135252 0.0284476 -1.6718e-20)
(0.133866 0.0299743 1.58545e-20)
(0.160884 -0.0644125 -2.27415e-21)
(0.160686 -0.0650364 -3.56882e-20)
(0.160945 -0.065575 3.92805e-20)
(0.161399 -0.0656823 0)
(0.161989 -0.0652804 -2.18191e-21)
(0.162695 -0.0642932 0)
(0.163468 -0.062675 -1.95764e-21)
(0.164253 -0.060391 1.33305e-20)
(0.164979 -0.0574219 -1.43075e-20)
(0.165571 -0.0537726 6.86914e-22)
(0.165951 -0.0494768 -1.12838e-21)
(0.166047 -0.0445974 -4.30383e-22)
(0.165797 -0.0392261 -1.55081e-22)
(0.165154 -0.0334786 -4.43106e-23)
(0.164095 -0.0274874 1.34825e-20)
(0.16262 -0.0213931 -1.34954e-20)
(0.160753 -0.0153344 -4.94189e-23)
(0.158539 -0.00943919 -1.51649e-22)
(0.156037 -0.00381729 4.58378e-22)
(0.153318 0.00144407 0)
(0.150458 0.00628209 6.05901e-22)
(0.147528 0.0106578 9.62797e-21)
(0.144597 0.0145537 -9.8722e-21)
(0.141725 0.0179701 -1.42453e-21)
(0.13896 0.0209218 0)
(0.136343 0.0234334 -1.44383e-21)
(0.133896 0.025532 0)
(0.131634 0.0272463 -1.93491e-20)
(0.129597 0.0286305 2.02002e-20)
(0.128153 0.0300842 -1.15274e-21)
(0.155001 -0.0647878 -3.62713e-20)
(0.154867 -0.0652052 3.80775e-20)
(0.155208 -0.0655401 1.1317e-22)
(0.15573 -0.0654368 2.07456e-20)
(0.156377 -0.064807 -3.43952e-20)
(0.157116 -0.0635891 2.04191e-20)
(0.157902 -0.0617485 2.01515e-21)
(0.158677 -0.0592556 5.00363e-23)
(0.159372 -0.0560991 0)
(0.159915 -0.0522923 -7.09379e-22)
(0.160232 -0.0478753 -2.90113e-21)
(0.160255 -0.0429159 4.55599e-21)
(0.15993 -0.0375079 1.39971e-22)
(0.159216 -0.0317659 -1.0124e-22)
(0.158095 -0.025819 3.06586e-20)
(0.156572 -0.0198018 -3.09581e-20)
(0.154671 -0.0138456 5.13326e-22)
(0.152438 -0.0080704 2.1905e-22)
(0.149931 -0.00257834 -4.90707e-21)
(0.147217 0.00255001 4.38217e-21)
(0.144367 0.00725714 -6.25711e-22)
(0.141452 0.0115078 0)
(0.138533 0.0152867 -1.42371e-21)
(0.135669 0.0185952 1.46636e-21)
(0.132905 0.0214481 -1.10329e-20)
(0.13028 0.0238693 2.65189e-20)
(0.127817 0.0258847 -1.06679e-20)
(0.125528 0.0275225 1.81327e-22)
(0.123458 0.0288375 -2.14289e-20)
(0.121964 0.0302188 2.28591e-20)
(0.148355 -0.0649048 0)
(0.148299 -0.0651042 0)
(0.148726 -0.0652236 -2.26556e-20)
(0.149323 -0.064897 1.83641e-20)
(0.150027 -0.0640289 0)
(0.150798 -0.0625778 -2.28587e-21)
(0.151593 -0.0605141 -2.20906e-21)
(0.152354 -0.0578162 -1.94816e-21)
(0.153012 -0.0544817 0)
(0.1535 -0.0505318 0)
(0.153749 -0.046013 -5.97775e-22)
(0.153698 -0.040997 1.64758e-21)
(0.153299 -0.0355785 -1.72087e-21)
(0.152518 -0.0298701 -3.19854e-23)
(0.151342 -0.0239962 5.07144e-20)
(0.14978 -0.0180842 -5.07597e-20)
(0.147858 -0.0122571 -8.1176e-23)
(0.145621 -0.00662609 1.69386e-21)
(0.143125 -0.00128506 -2.16226e-21)
(0.140435 0.00369239 0)
(0.137615 0.00825413 0)
(0.134732 0.0123686 0)
(0.131844 0.0160224 0)
(0.129005 0.0192177 -1.89502e-21)
(0.126259 0.0219688 -1.70782e-21)
(0.123641 0.0242985 0)
(0.121173 0.026231 -1.60204e-20)
(0.118869 0.0277933 1.22751e-20)
(0.116775 0.0290406 0)
(0.115238 0.0303507 0)
(0.140841 -0.0646922 -2.78881e-21)
(0.140875 -0.0646605 0)
(0.141398 -0.0645542 0)
(0.142077 -0.0639871 0)
(0.142838 -0.0628763 0)
(0.14364 -0.0611905 0)
(0.14444 -0.0589067 2.25615e-21)
(0.14518 -0.056013 1.05775e-21)
(0.145795 -0.0525158 -6.67186e-21)
(0.146222 -0.0484441 2.09721e-21)
(0.146399 -0.04385 1.03379e-20)
(0.146273 -0.0388083 -5.83189e-21)
(0.1458 -0.0334134 7.46628e-22)
(0.144957 -0.0277747 6.73781e-22)
(0.143735 -0.02201 7.44109e-20)
(0.142147 -0.0162385 -7.44588e-20)
(0.140219 -0.0105738 -2.03487e-21)
(0.137996 -0.00511725 -5.98642e-22)
(0.135532 4.5949e-05 8.63657e-21)
(0.132885 0.0048496 -1.19915e-20)
(0.130116 0.00924708 2.43004e-22)
(0.127287 0.0132103 7.3061e-21)
(0.12445 0.0167279 1.05853e-21)
(0.121656 0.0198022 1.9354e-21)
(0.118945 0.0224467 0)
(0.116351 0.0246824 0)
(0.113893 0.0265315 0)
(0.111586 0.0280195 0)
(0.109478 0.0292008 0)
(0.107906 0.0304415 -1.83679e-21)
(0.132329 -0.0640527 5.81175e-21)
(0.132471 -0.0637779 -2.32156e-20)
(0.133101 -0.063429 2.41315e-20)
(0.133866 -0.0626116 0)
(0.134683 -0.0612567 -2.12989e-20)
(0.135513 -0.0593384 2.4602e-20)
(0.136311 -0.0568437 -1.94676e-20)
(0.137023 -0.0537704 1.64935e-20)
(0.137588 -0.0501341 0)
(0.137949 -0.045971 4.82241e-21)
(0.13805 -0.041338 -2.15405e-21)
(0.137846 -0.0363116 -5.55779e-21)
(0.137304 -0.0309845 1.46298e-21)
(0.136406 -0.0254612 -1.27318e-22)
(0.135149 -0.0198515 1.02115e-19)
(0.133549 -0.014265 -1.01129e-19)
(0.131634 -0.00880435 -8.74762e-22)
(0.129446 -0.00356047 -2.70007e-21)
(0.127035 0.00139098 1.00414e-20)
(0.124456 0.00599154 1.04714e-21)
(0.121764 0.0102002 -8.72181e-21)
(0.119013 0.0139925 -1.16069e-21)
(0.116251 0.0173584 -2.09355e-20)
(0.113524 0.0203004 1.69544e-20)
(0.110869 0.0228307 -1.65578e-20)
(0.108317 0.024968 1.85253e-20)
(0.105886 0.026732 0)
(0.103591 0.028146 -1.80084e-20)
(0.10148 0.0292627 1.74354e-20)
(0.0998806 0.0304359 3.98486e-21)
(0.122659 -0.0628489 1.90228e-20)
(0.122926 -0.0623179 -2.47476e-20)
(0.123672 -0.0617117 -2.14277e-20)
(0.124524 -0.060642 2.55543e-20)
(0.125396 -0.0590448 2.56154e-20)
(0.126247 -0.0569036 -4.9852e-20)
(0.127036 -0.0542161 3.37701e-20)
(0.127711 -0.0509903 -8.70203e-21)
(0.128217 -0.0472505 0)
(0.128504 -0.0430391 -5.71896e-21)
(0.128525 -0.0384169 5.20111e-21)
(0.128245 -0.0334604 -2.02935e-22)
(0.127638 -0.0282587 -1.86572e-22)
(0.126694 -0.0229096 6.50592e-23)
(0.125417 -0.0175133 1.33906e-19)
(0.123823 -0.012168 -1.33264e-19)
(0.121944 -0.00696418 -1.96226e-21)
(0.119817 -0.00198128 1.4204e-21)
(0.117487 0.00271523 -5.0761e-22)
(0.115005 0.007075 -1.11912e-20)
(0.112418 0.0110628 1.01231e-20)
(0.109774 0.0146576 2.4991e-21)
(0.107116 0.0178507 1.1822e-20)
(0.104483 0.0206442 -2.92192e-20)
(0.10191 0.0230486 3.72281e-20)
(0.0994224 0.02508 -1.81633e-20)
(0.097038 0.0267547 -2.12285e-20)
(0.0947719 0.0280934 2.05491e-20)
(0.0926725 0.0291463 1.87574e-20)
(0.0910565 0.030253 -2.37025e-20)
(0.111619 -0.06088 3.0419e-20)
(0.112031 -0.0600788 3.59602e-21)
(0.112897 -0.0592136 -4.5797e-21)
(0.113833 -0.0578944 -2.72565e-20)
(0.114753 -0.0560667 -3.04197e-21)
(0.115616 -0.0537246 4.36926e-21)
(0.116383 -0.0508771 6.98981e-23)
(0.117009 -0.0475421 0)
(0.117445 -0.0437517 0)
(0.117651 -0.0395538 -5.78368e-21)
(0.117589 -0.0350108 6.52051e-21)
(0.117234 -0.0301973 2.04382e-22)
(0.11657 -0.0251972 0)
(0.115594 -0.0200989 -1.64178e-22)
(0.114315 -0.0149912 1.70601e-19)
(0.112753 -0.00995908 -1.69815e-19)
(0.110937 -0.00507967 -8.38187e-22)
(0.108902 -0.000419738 0)
(0.106689 0.0039661 5.11226e-22)
(0.104338 0.00803597 -9.14952e-21)
(0.101893 0.0117605 8.85315e-21)
(0.0993919 0.0151221 -1.32987e-21)
(0.0968724 0.018113 0)
(0.0943675 0.0207346 1.86346e-22)
(0.0919065 0.0229953 4.45943e-21)
(0.0895131 0.0249078 -2.83883e-21)
(0.087202 0.0264852 2.40232e-20)
(0.0849878 0.0277443 -2.1519e-23)
(0.0829194 0.028732 1.96066e-21)
(0.0813 0.0297712 -1.93791e-20)
(0.0989265 -0.0578374 -2.92567e-20)
(0.0994947 -0.0567705 2.50694e-20)
(0.100477 -0.0556521 0)
(0.101488 -0.0541002 -2.50126e-20)
(0.102441 -0.0520716 2.94849e-20)
(0.103298 -0.049572 -1.31443e-20)
(0.104026 -0.046621 2.11048e-20)
(0.104585 -0.0432457 -9.49413e-21)
(0.104939 -0.0394847 0)
(0.105056 -0.0353892 0)
(0.104909 -0.0310212 2.25452e-21)
(0.104485 -0.0264512 -2.15655e-21)
(0.103777 -0.0217546 0)
(0.102789 -0.0170087 -2.81988e-23)
(0.101536 -0.0122883 2.12293e-19)
(0.100037 -0.00766342 -2.12331e-19)
(0.0983217 -0.00319641 2.01504e-22)
(0.0964199 0.00105962 0)
(0.0943656 0.00506155 4.63576e-21)
(0.0921926 0.00877633 -4.47309e-21)
(0.0899343 0.0121805 0)
(0.0876222 0.0152596 0)
(0.0852859 0.0180069 1.52865e-20)
(0.0829522 0.0204224 -2.84532e-20)
(0.0806452 0.0225118 1.17189e-20)
(0.0783847 0.0242844 -2.56201e-20)
(0.0761829 0.0257491 2.83466e-20)
(0.0740532 0.0269186 0)
(0.0720438 0.0278354 -2.7284e-20)
(0.0704418 0.0288016 2.16283e-20)
(0.0841815 -0.0532334 -2.95358e-20)
(0.0849025 -0.0519261 2.87223e-20)
(0.0859807 -0.0505844 -2.99566e-20)
(0.0870397 -0.0488466 7.50776e-22)
(0.0879967 -0.0466817 1.15954e-21)
(0.088819 -0.044106 4.1422e-20)
(0.0894812 -0.0411487 -1.25908e-20)
(0.0899542 -0.037844 -1.25659e-21)
(0.0902114 -0.034235 7.62452e-21)
(0.0902325 -0.0303734 -1.35196e-20)
(0.0900049 -0.0263182 5.82257e-21)
(0.0895242 -0.0221322 9.10729e-22)
(0.0887942 -0.0178799 -5.63715e-22)
(0.0878257 -0.013624 -5.57035e-22)
(0.086636 -0.00942367 2.60659e-19)
(0.0852468 -0.00533188 -2.59422e-19)
(0.0836824 -0.00139482 -3.135e-21)
(0.0819685 0.00234887 7.5418e-21)
(0.080131 0.00586806 -4.58432e-21)
(0.078195 0.0091387 -1.3067e-20)
(0.0761846 0.0121433 2.69898e-20)
(0.0741223 0.0148704 -1.3746e-20)
(0.0720295 0.0173136 -1.73696e-21)