/*--------------------------------*- C++ -*----------------------------------*\
  =========                 |
  \\      /  F ield         | OpenFOAM: The Open Source CFD Toolbox
   \\    /   O peration     | Website:  https://openfoam.org
    \\  /    A nd           | Version:  12
     \\/     M anipulation  |
\*---------------------------------------------------------------------------*/
FoamFile
{
    format      ascii;
    class       volSymmTensorField;
    location    "260";
    object      UPrime2Mean;
}
// * * * * * * * * * * * * * * * * * * * * * * * * * * * * * * * * * * * * * //

dimensions      [0 2 -2 0 0 0 0];

internalField   nonuniform List<symmTensor> 
6750
(
(2.57486e-10 3.7234e-09 0 1.03957e-07 0 0)
(6.07155e-09 7.17692e-08 0 1.45458e-06 0 0)
(1.96982e-08 2.41745e-07 0 4.64631e-06 0 0)
(3.65749e-08 4.90785e-07 0 9.70564e-06 0 0)
(8.69793e-08 1.05104e-06 0 1.64583e-05 0 0)
(2.40997e-11 3.89753e-10 0 7.88105e-08 0 0)
(1.09008e-09 2.9375e-08 0 1.22074e-06 0 0)
(7.54852e-09 1.45928e-07 0 3.98093e-06 0 0)
(2.6077e-08 4.0743e-07 0 8.30154e-06 0 0)
(6.96147e-08 8.87529e-07 0 1.38993e-05 0 0)
(1.98842e-11 4.26103e-10 0 7.1688e-08 0 0)
(8.70863e-10 2.8972e-08 0 1.11297e-06 0 0)
(7.77677e-09 1.56409e-07 0 3.58312e-06 0 0)
(3.03491e-08 4.44351e-07 0 7.31059e-06 0 0)
(7.8985e-08 9.17841e-07 0 1.18892e-05 0 0)
(1.69291e-11 3.91151e-10 0 6.27239e-08 0 0)
(1.26248e-09 3.42543e-08 0 9.83152e-07 0 0)
(1.06827e-08 1.78444e-07 0 3.13299e-06 0 0)
(3.90684e-08 4.83937e-07 0 6.30355e-06 0 0)
(9.40682e-08 9.49929e-07 0 1.01096e-05 0 0)
(1.28818e-11 3.02105e-10 0 5.26973e-08 0 0)
(1.69835e-09 3.7309e-08 0 8.41367e-07 0 0)
(1.39452e-08 1.91093e-07 0 2.67283e-06 0 0)
(4.85954e-08 5.04175e-07 0 5.34202e-06 0 0)
(1.11525e-07 9.63414e-07 0 8.51465e-06 0 0)
(8.6717e-12 1.71476e-10 0 4.2849e-08 0 0)
(2.03611e-09 3.75154e-08 0 6.99334e-07 0 0)
(1.6946e-08 1.93442e-07 0 2.22468e-06 0 0)
(5.81507e-08 5.05996e-07 0 4.4355e-06 0 0)
(1.31118e-07 9.57695e-07 0 7.05118e-06 0 0)
(6.6365e-12 3.99558e-11 0 3.38174e-08 0 0)
(2.29051e-09 3.58459e-08 0 5.63937e-07 0 0)
(1.97608e-08 1.88429e-07 0 1.8002e-06 0 0)
(6.80527e-08 4.93731e-07 0 3.58806e-06 0 0)
(1.53298e-07 9.33846e-07 0 5.69848e-06 0 0)
(8.05091e-12 -6.43898e-11 0 2.58444e-08 0 0)
(2.50796e-09 3.30993e-08 0 4.39193e-07 0 0)
(2.25483e-08 1.78079e-07 0 1.4077e-06 0 0)
(7.85101e-08 4.69362e-07 0 2.80748e-06 0 0)
(1.77941e-07 8.90466e-07 0 4.45775e-06 0 0)
(1.29584e-11 -1.32295e-10 0 1.89887e-08 0 0)
(2.71622e-09 2.96798e-08 0 3.27747e-07 0 0)
(2.53434e-08 1.6327e-07 0 1.05461e-06 0 0)
(8.93183e-08 4.33233e-07 0 2.10527e-06 0 0)
(2.04076e-07 8.25316e-07 0 3.34301e-06 0 0)
(2.05217e-11 -1.6513e-10 0 1.32461e-08 0 0)
(2.921e-09 2.57621e-08 0 2.31506e-07 0 0)
(2.80645e-08 1.4443e-07 0 7.47533e-07 0 0)
(9.99544e-08 3.85561e-07 0 1.4937e-06 0 0)
(2.3014e-07 7.37433e-07 0 2.37229e-06 0 0)
(2.93971e-11 -1.68751e-10 0 8.59613e-09 0 0)
(3.11415e-09 2.14411e-08 0 1.51789e-07 0 0)
(3.05698e-08 1.2204e-07 0 4.91651e-07 0 0)
(1.0975e-07 3.27348e-07 0 9.83287e-07 0 0)
(2.54311e-07 6.28193e-07 0 1.56196e-06 0 0)
(3.81286e-11 -1.50109e-10 0 5.00947e-09 0 0)
(3.28015e-09 1.68051e-08 0 8.92734e-08 0 0)
(3.27006e-08 9.67981e-08 0 2.90044e-07 0 0)
(1.18065e-07 2.6057e-07 0 5.80578e-07 0 0)
(2.74919e-07 5.0134e-07 0 9.22419e-07 0 0)
(4.52166e-11 -1.14863e-10 0 2.44149e-09 0 0)
(3.39926e-09 1.1963e-08 0 4.39525e-08 0 0)
(3.43189e-08 6.96271e-08 0 1.43332e-07 0 0)
(1.24404e-07 1.8793e-07 0 2.87147e-07 0 0)
(2.90722e-07 3.62274e-07 0 4.56289e-07 0 0)
(4.8159e-11 -6.60047e-11 0 8.26815e-10 0 0)
(3.44316e-09 7.05045e-09 0 1.51493e-08 0 0)
(3.53283e-08 4.157e-08 0 4.97029e-08 0 0)
(1.28484e-07 1.12451e-07 0 9.96542e-08 0 0)
(3.01055e-07 2.17086e-07 0 1.58379e-07 0 0)
(4.21367e-11 -1.6221e-11 0 8.93265e-11 0 0)
(3.34819e-09 2.23588e-09 0 1.57515e-09 0 0)
(3.57018e-08 1.36427e-08 0 5.29749e-09 0 0)
(1.30304e-07 3.7061e-08 0 1.06684e-08 0 0)
(3.05899e-07 7.16806e-08 0 1.69856e-08 0 0)
(4.22037e-11 1.27291e-11 0 1.11363e-10 0 0)
(3.34878e-09 -2.30581e-09 0 1.68261e-09 0 0)
(3.57007e-08 -1.38928e-08 0 5.51836e-09 0 0)
(1.303e-07 -3.75257e-08 0 1.09848e-08 0 0)
(3.05887e-07 -7.23624e-08 0 1.73811e-08 0 0)
(4.80752e-11 6.3753e-11 0 8.93143e-10 0 0)
(3.44168e-09 -7.12083e-09 0 1.54815e-08 0 0)
(3.5323e-08 -4.18175e-08 0 5.03757e-08 0 0)
(1.28469e-07 -1.12908e-07 0 1.00615e-07 0 0)
(3.01018e-07 -2.17752e-07 0 1.59579e-07 0 0)
(4.50336e-11 1.1367e-10 0 2.55279e-09 0 0)
(3.39629e-09 -1.20296e-08 0 4.45161e-08 0 0)
(3.43093e-08 -6.98653e-08 0 1.4447e-07 0 0)
(1.24379e-07 -1.88368e-07 0 2.88768e-07 0 0)
(2.90658e-07 -3.62905e-07 0 4.5831e-07 0 0)
(3.79075e-11 1.50271e-10 0 5.16338e-09 0 0)
(3.2761e-09 -1.68649e-08 0 9.00709e-08 0 0)
(3.26877e-08 -9.70212e-08 0 2.91652e-07 0 0)
(1.18031e-07 -2.6098e-07 0 5.82862e-07 0 0)
(2.74832e-07 -5.01916e-07 0 9.25261e-07 0 0)
(2.91953e-11 1.70567e-10 0 8.78836e-09 0 0)
(3.10964e-09 -2.14924e-08 0 1.52819e-07 0 0)
(3.05553e-08 -1.22244e-07 0 4.93727e-07 0 0)
(1.09711e-07 -3.27722e-07 0 9.86226e-07 0 0)
(2.54207e-07 -6.28698e-07 0 1.5656e-06 0 0)
(2.04e-11 1.6867e-10 0 1.34707e-08 0 0)
(2.91657e-09 -2.58036e-08 0 2.32765e-07 0 0)
(2.80502e-08 -1.44615e-07 0 7.50073e-07 0 0)
(9.99139e-08 -3.85895e-07 0 1.49728e-06 0 0)
(2.30018e-07 -7.37848e-07 0 2.37669e-06 0 0)
(1.29766e-11 1.37493e-10 0 1.92385e-08 0 0)
(2.71182e-09 -2.97081e-08 0 3.29225e-07 0 0)
(2.53273e-08 -1.63424e-07 0 1.0576e-06 0 0)
(8.92753e-08 -4.33513e-07 0 2.10943e-06 0 0)
(2.03945e-07 -8.25628e-07 0 3.34805e-06 0 0)
(8.24454e-12 7.11666e-11 0 2.61101e-08 0 0)
(2.50272e-09 -3.31051e-08 0 4.40867e-07 0 0)
(2.25251e-08 -1.78174e-07 0 1.41111e-06 0 0)
(7.84528e-08 -4.69547e-07 0 2.81218e-06 0 0)
(1.77804e-07 -8.9067e-07 0 4.46333e-06 0 0)
(6.99307e-12 -3.21153e-11 0 3.40888e-08 0 0)
(2.28487e-09 -3.5828e-08 0 5.65769e-07 0 0)
(1.97335e-08 -1.88462e-07 0 1.80401e-06 0 0)
(6.79945e-08 -4.93857e-07 0 3.59346e-06 0 0)
(1.53165e-07 -9.34017e-07 0 5.70523e-06 0 0)
(9.15303e-12 -1.63675e-10 0 4.31178e-08 0 0)
(2.03148e-09 -3.74846e-08 0 7.01292e-07 0 0)
(1.69237e-08 -1.93456e-07 0 2.22887e-06 0 0)
(5.81118e-08 -5.06152e-07 0 4.44161e-06 0 0)
(1.31011e-07 -9.57912e-07 0 7.05908e-06 0 0)
(1.34224e-11 -2.94892e-10 0 5.29587e-08 0 0)
(1.69461e-09 -3.72672e-08 0 8.43432e-07 0 0)
(1.39266e-08 -1.9109e-07 0 2.67744e-06 0 0)
(4.85642e-08 -5.04336e-07 0 5.34904e-06 0 0)
(1.11427e-07 -9.63631e-07 0 8.52404e-06 0 0)
(1.74368e-11 -3.85184e-10 0 6.29746e-08 0 0)
(1.25956e-09 -3.42067e-08 0 9.85296e-07 0 0)
(1.06679e-08 -1.78432e-07 0 3.138e-06 0 0)
(3.90449e-08 -4.8413e-07 0 6.31166e-06 0 0)
(9.39757e-08 -9.50121e-07 0 1.01207e-05 0 0)
(2.0238e-11 -4.21484e-10 0 7.19266e-08 0 0)
(8.67912e-10 -2.892e-08 0 1.11516e-06 0 0)
(7.763e-09 -1.56385e-07 0 3.58851e-06 0 0)
(3.03214e-08 -4.445e-07 0 7.31981e-06 0 0)
(7.88869e-08 -9.17852e-07 0 1.19026e-05 0 0)
(2.42322e-11 -3.8719e-10 0 7.90346e-08 0 0)
(1.08581e-09 -2.93298e-08 0 1.22293e-06 0 0)
(7.53253e-09 -1.45899e-07 0 3.98661e-06 0 0)
(2.60424e-08 -4.07512e-07 0 8.31181e-06 0 0)
(6.95164e-08 -8.87218e-07 0 1.3915e-05 0 0)
(2.56924e-10 -3.72124e-09 0 1.04167e-07 0 0)
(6.06104e-09 -7.17179e-08 0 1.45669e-06 0 0)
(1.96708e-08 -2.41645e-07 0 4.65203e-06 0 0)
(3.65264e-08 -4.90532e-07 0 9.71647e-06 0 0)
(8.68669e-08 -1.0501e-06 0 1.64756e-05 0 0)
(9.31684e-07 5.83031e-06 0 3.98141e-05 0 0)
(2.17172e-06 1.06959e-05 0 5.60912e-05 0 0)
(3.81442e-06 1.63647e-05 0 7.3899e-05 0 0)
(5.58332e-06 2.21976e-05 -4.87402e-25 9.23803e-05 -1.24416e-24 1.06808e-42)
(7.42555e-06 2.8042e-05 0 0.000110467 0 0)
(9.29101e-06 3.37112e-05 0 0.000127264 0 0)
(1.11138e-05 3.89782e-05 5.00283e-23 0.000141954 1.30226e-22 4.12064e-39)
(1.28466e-05 4.36414e-05 -5.52291e-23 0.000153731 -1.42564e-22 4.19328e-39)
(1.44257e-05 4.74816e-05 -4.68907e-25 0.000161805 -1.20554e-24 2.35526e-43)
(1.59291e-05 5.05936e-05 -3.26234e-23 0.000166089 -8.32927e-23 8.88663e-40)
(1.72779e-05 5.27332e-05 5.64517e-26 0.000165907 -1.14167e-25 1.81905e-42)
(1.85054e-05 5.37702e-05 1.68317e-25 0.0001605 2.21814e-25 2.1456e-42)
(1.96294e-05 5.38008e-05 1.93427e-23 0.000150736 4.63592e-23 2.11395e-40)
(2.06772e-05 5.28678e-05 1.98252e-23 0.000137306 4.61576e-23 1.72502e-40)
(2.16788e-05 5.1031e-05 4.76736e-23 0.000121212 1.07109e-22 7.72442e-40)
(2.2663e-05 4.835e-05 -4.90504e-23 0.000103644 -1.05757e-22 7.72577e-40)
(2.3664e-05 4.48841e-05 2.02283e-23 8.58471e-05 4.15116e-23 1.03159e-40)
(2.47168e-05 4.06817e-05 1.9327e-23 6.8959e-05 3.74138e-23 7.40056e-41)
(2.5859e-05 3.57997e-05 -1.06201e-24 5.39388e-05 -1.96464e-24 2.28009e-42)
(2.71394e-05 3.03167e-05 -1.14672e-24 4.14786e-05 -1.9053e-24 1.97541e-42)
(2.86511e-05 2.43552e-05 -3.96513e-23 3.19529e-05 -5.98114e-23 2.60045e-40)
(3.04022e-05 1.79084e-05 6.10038e-25 2.52218e-05 8.03673e-25 5.21935e-44)
(3.23384e-05 1.11152e-05 -7.45316e-23 2.12951e-05 -8.50475e-23 6.76908e-40)
(3.44599e-05 4.14234e-06 7.58042e-23 1.98663e-05 7.12754e-23 6.64978e-40)
(3.67418e-05 -2.8506e-06 0 2.04813e-05 0 0)
(3.91311e-05 -9.71261e-06 0 2.26263e-05 0 0)
(4.15616e-05 -1.63041e-05 1.16615e-24 2.57917e-05 3.96293e-25 1.08488e-43)
(4.39954e-05 -2.24867e-05 0 2.95139e-05 0 0)
(4.64883e-05 -2.80944e-05 0 3.33643e-05 0 0)
(4.87552e-05 -3.29509e-05 0 3.68831e-05 0 0)
(1.45727e-06 8.03082e-06 0 4.77362e-05 0 0)
(2.85689e-06 1.32538e-05 0 6.51833e-05 0 0)
(4.47569e-06 1.8758e-05 0 8.26476e-05 0 0)
(6.19848e-06 2.43292e-05 4.86575e-25 9.99375e-05 1.23535e-24 9.5002e-43)
(8.00689e-06 2.989e-05 0 0.000116409 0 0)
(9.84439e-06 3.52508e-05 0 0.000131387 0 0)
(1.16546e-05 4.02116e-05 -4.79557e-23 0.000144176 -1.22097e-22 3.56111e-39)
(1.34015e-05 4.46026e-05 5.36052e-23 0.000154092 1.34544e-22 3.72942e-39)
(1.50358e-05 4.82492e-05 4.51042e-25 0.00016051 1.12339e-24 2.07599e-43)
(1.66356e-05 5.12695e-05 0 0.000163555 0 0)
(1.81118e-05 5.33521e-05 0 0.000162276 0 0)
(1.95247e-05 5.44818e-05 3.47868e-23 0.000156452 8.16468e-23 6.52034e-40)
(2.08541e-05 5.46813e-05 -3.65935e-23 0.000146828 -8.33132e-23 6.56142e-40)
(2.21183e-05 5.39758e-05 0 0.000134032 0 0)
(2.3329e-05 5.23957e-05 1.33746e-22 0.000118936 2.85292e-22 5.70137e-39)
(2.4496e-05 4.9974e-05 -1.379e-22 0.000102558 -2.82746e-22 5.69768e-39)
(2.56361e-05 4.67502e-05 0 8.59436e-05 0 0)
(2.67749e-05 4.27721e-05 -3.93086e-23 7.00745e-05 -7.29588e-23 3.14705e-40)
(2.79468e-05 3.80977e-05 4.02174e-23 5.57695e-05 7.02156e-23 3.17815e-40)
(2.92017e-05 3.28114e-05 0 4.36479e-05 0 0)
(3.0579e-05 2.69953e-05 0 3.4066e-05 0 0)
(3.21333e-05 2.07127e-05 -5.93303e-25 2.70216e-05 -7.8556e-25 4.59288e-44)
(3.38758e-05 1.4101e-05 7.3893e-23 2.25293e-05 8.43039e-23 6.12451e-40)
(3.57738e-05 7.28584e-06 -7.60858e-23 2.03771e-05 -7.30872e-23 6.22692e-40)
(3.78166e-05 4.18257e-07 0 2.02205e-05 0 0)
(3.99695e-05 -6.35949e-06 0 2.16375e-05 0 0)
(4.21757e-05 -1.29212e-05 -1.11055e-24 2.41842e-05 -4.81217e-25 9.62451e-44)
(4.4378e-05 -1.91561e-05 0 2.74405e-05 0 0)
(4.66186e-05 -2.49635e-05 0 3.10376e-05 0 0)
(4.88188e-05 -3.04072e-05 0 3.47497e-05 0 0)
(2.02652e-06 1.01102e-05 0 5.39461e-05 0 0)
(3.4006e-06 1.50787e-05 0 7.06677e-05 0 0)
(5.00168e-06 2.03717e-05 0 8.71198e-05 0 0)
(6.74692e-06 2.58154e-05 -3.29812e-23 0.000103305 -8.27797e-23 3.85463e-39)
(8.59127e-06 3.12569e-05 3.8363e-23 0.000118612 9.5149e-23 3.94563e-39)
(1.04806e-05 3.6504e-05 -4.55036e-23 0.000132376 -1.12582e-22 3.95409e-39)
(1.2378e-05 4.13884e-05 5.0943e-23 0.000143936 1.23845e-22 4.02882e-39)
(1.42565e-05 4.57583e-05 -8.91919e-25 0.000152678 -2.14337e-24 9.35011e-43)
(1.60893e-05 4.94845e-05 0 0.000158112 0 0)
(1.79409e-05 5.26599e-05 0 0.000160406 0 0)
(1.97281e-05 5.49439e-05 1.11268e-24 0.000158496 2.47957e-24 7.72595e-43)
(2.15099e-05 5.63691e-05 0 0.000152543 0 0)
(2.32383e-05 5.68949e-05 0 0.000143154 0 0)
(2.49142e-05 5.65183e-05 3.26686e-25 0.000130917 6.5941e-25 3.7301e-44)
(2.65225e-05 5.52348e-05 2.41535e-22 0.000116623 4.70565e-22 1.62232e-38)
(2.80463e-05 5.30493e-05 -2.50033e-22 0.000101174 -4.67632e-22 1.62229e-38)
(2.94777e-05 4.9983e-05 -3.52371e-25 8.54924e-05 -6.31025e-25 2.66186e-44)
(3.0824e-05 4.60767e-05 0 7.04374e-05 0 0)
(3.21111e-05 4.13949e-05 0 5.67366e-05 0 0)
(3.33857e-05 3.60284e-05 -1.41246e-24 4.49404e-05 -2.11435e-24 2.8791e-43)
(3.47024e-05 3.00842e-05 0 3.53901e-05 0 0)
(3.61128e-05 2.36865e-05 0 2.82391e-05 0 0)
(3.76436e-05 1.69451e-05 1.34471e-24 2.34283e-05 1.47467e-24 1.84439e-43)
(3.92982e-05 1.00041e-05 8.45041e-23 2.08135e-05 7.88611e-23 6.40691e-40)
(4.10748e-05 3.01418e-06 -8.51932e-23 2.01241e-05 -6.56761e-23 6.2881e-40)
(4.29557e-05 -3.8831e-06 8.4708e-23 2.10072e-05 5.13871e-23 5.37022e-40)
(4.49066e-05 -1.0561e-05 -8.56093e-23 2.30733e-05 -3.79599e-23 5.23632e-40)
(4.68792e-05 -1.69075e-05 0 2.59334e-05 0 0)
(4.88433e-05 -2.28228e-05 0 2.92317e-05 0 0)
(5.04628e-05 -2.84591e-05 0 3.28621e-05 0 0)
(2.58972e-06 1.20799e-05 0 5.97912e-05 0 0)
(3.94555e-06 1.6863e-05 4.9086e-23 7.5821e-05 1.24275e-22 1.78941e-38)
(5.58896e-06 2.20904e-05 -3.00869e-23 9.13941e-05 -7.42208e-23 4.72395e-39)
(7.40543e-06 2.74937e-05 -7.38419e-23 0.000106532 -1.81266e-22 1.86043e-38)
(9.33946e-06 3.28879e-05 8.62478e-23 0.000120655 2.08546e-22 1.8371e-38)
(1.13559e-05 3.81119e-05 -4.85296e-23 0.000133147 -1.14922e-22 4.46089e-39)
(1.34365e-05 4.30269e-05 0 0.000143418 0 0)
(1.5555e-05 4.74834e-05 -1.88562e-24 0.000150937 -4.23957e-24 3.95866e-42)
(1.77393e-05 5.14455e-05 0 0.000155416 0 0)
(1.99766e-05 5.48569e-05 0 0.000156865 0 0)
(2.22486e-05 5.74618e-05 -4.22233e-23 0.000154361 -8.64334e-23 9.3763e-40)
(2.45708e-05 5.92655e-05 4.27891e-23 0.000148299 8.38117e-23 8.36147e-40)
(2.68811e-05 6.01877e-05 0 0.000139161 0 0)
(2.91533e-05 6.01932e-05 -3.75459e-25 0.000127504 -6.81951e-25 4.11142e-44)
(3.13381e-05 5.92427e-05 3.73037e-22 0.000114036 6.51631e-22 3.25605e-38)
(3.33844e-05 5.7313e-05 -3.8774e-22 9.9548e-05 -6.49136e-22 3.25592e-38)
(3.52533e-05 5.44062e-05 4.09053e-25 8.48393e-05 6.56517e-25 2.93392e-44)
(3.69294e-05 5.05556e-05 0 7.06528e-05 0 0)
(3.84263e-05 4.58294e-05 5.23813e-23 5.7625e-05 7.59169e-23 3.52298e-40)
(3.97881e-05 4.03307e-05 -4.95779e-23 4.625e-05 -6.7603e-23 3.08079e-40)
(4.10802e-05 3.41881e-05 -1.62523e-24 3.6856e-05 -2.04692e-24 2.83301e-43)
(4.23669e-05 2.75423e-05 0 2.96055e-05 0 0)
(4.36952e-05 2.05359e-05 3.1551e-24 2.45056e-05 3.22352e-24 8.7123e-43)
(4.50959e-05 1.3325e-05 0 2.14542e-05 0 0)
(4.65848e-05 6.0667e-06 -9.57038e-23 2.02427e-05 -7.18794e-23 6.474e-40)
(4.81601e-05 -1.09375e-06 1.86873e-22 2.05822e-05 1.13555e-22 2.34231e-39)
(4.98101e-05 -8.02699e-06 -1.83595e-22 2.21385e-05 -8.50482e-23 2.08843e-39)
(5.15158e-05 -1.46177e-05 -8.88031e-23 2.45623e-05 -2.86418e-23 4.28485e-40)
(5.32146e-05 -2.07663e-05 1.82659e-22 2.75195e-05 3.36905e-23 1.80835e-39)
(5.41321e-05 -2.67206e-05 0 3.10066e-05 0 0)
(3.20799e-06 1.41313e-05 0 6.55184e-05 0 0)
(4.60521e-06 1.88586e-05 -5.5274e-23 8.0786e-05 -1.38935e-22 2.05795e-38)
(6.34012e-06 2.40808e-05 6.55296e-23 9.53698e-05 1.6005e-22 1.98927e-38)
(8.27453e-06 2.9477e-05 0 0.000109325 0 0)
(1.03638e-05 3.48765e-05 0 0.000122134 0 0)
(1.25945e-05 4.015e-05 -1.63109e-24 0.000133247 -3.64832e-24 4.57911e-42)
(1.49625e-05 4.5174e-05 0 0.00014215 0 0)
(1.74478e-05 4.98041e-05 2.10539e-24 0.000148397 4.39856e-24 4.34795e-42)
(2.01104e-05 5.4061e-05 -3.70718e-23 0.000151909 -7.42106e-23 1.01966e-39)
(2.28952e-05 5.77715e-05 4.09665e-23 0.000152459 7.82944e-23 1.03505e-39)
(2.58257e-05 6.07574e-05 4.60747e-23 0.00014943 8.46623e-23 9.58832e-40)
(2.88681e-05 6.29737e-05 -4.84429e-23 0.000143293 -8.4551e-23 9.09089e-40)
(3.19514e-05 6.43234e-05 -1.60786e-24 0.000134466 -2.69002e-24 7.81442e-43)
(3.50126e-05 6.47369e-05 8.51953e-25 0.000123462 1.36727e-24 1.78559e-43)
(3.79606e-05 6.41442e-05 5.34831e-22 0.000110907 8.26398e-22 5.51145e-38)
(4.07019e-05 6.24958e-05 -5.57862e-22 9.74794e-05 -8.25722e-22 5.51119e-38)
(4.316e-05 5.97743e-05 -9.48333e-25 8.38524e-05 -1.34915e-24 1.30188e-43)
(4.52913e-05 5.60024e-05 1.92393e-24 7.06503e-05 2.61998e-24 4.62842e-43)
(4.70945e-05 5.1247e-05 -6.14499e-23 5.84127e-05 -7.96064e-23 3.93618e-40)
(4.86114e-05 4.56179e-05 6.00466e-23 4.75713e-05 7.36549e-23 3.66636e-40)
(4.9916e-05 3.92583e-05 6.23326e-23 3.84316e-05 7.11969e-23 3.24229e-40)
(5.10931e-05 3.23282e-05 -6.03995e-23 3.11657e-05 -6.37509e-23 3.00124e-40)
(5.22171e-05 2.49965e-05 -3.65618e-24 2.58267e-05 -3.49094e-24 9.56869e-43)
(5.33461e-05 1.74368e-05 0 2.23629e-05 0 0)
(5.45182e-05 9.8178e-06 3.54344e-24 2.06273e-05 2.5503e-24 7.67898e-43)
(5.57488e-05 2.29352e-06 0 2.03959e-05 0 0)
(5.70455e-05 -4.99893e-06 0 2.13933e-05 0 0)
(5.84221e-05 -1.19357e-05 2.08388e-22 2.33171e-05 7.29246e-23 2.10708e-39)
(5.98144e-05 -1.84166e-05 -2.01703e-22 2.58607e-05 -4.58119e-23 1.92419e-39)
(5.99602e-05 -2.48458e-05 0 2.91095e-05 0 0)
(3.95228e-06 1.63848e-05 -4.85744e-23 7.09372e-05 -1.16224e-22 2.02462e-38)
(5.45978e-06 2.11483e-05 9.02376e-23 8.52221e-05 2.21399e-22 4.98882e-38)
(7.34064e-06 2.6401e-05 -3.57946e-23 9.86522e-05 -8.44288e-23 5.3812e-39)
(9.45785e-06 3.18292e-05 0 0.000111292 0 0)
(1.17861e-05 3.72885e-05 -5.01168e-23 0.00012269 -1.09296e-22 5.09532e-39)
(1.43319e-05 4.2669e-05 5.5985e-23 0.000132354 1.16249e-22 4.90238e-39)
(1.7103e-05 4.78548e-05 -6.39005e-23 0.00013985 -1.27059e-22 4.53144e-39)
(2.00889e-05 5.27091e-05 7.41127e-23 0.00014483 1.3926e-22 4.92393e-39)
(2.33771e-05 5.72882e-05 0 0.000147369 0 0)
(2.68833e-05 6.13211e-05 2.85849e-24 0.000147031 4.85603e-24 4.22618e-42)
(3.06541e-05 6.46994e-05 -5.06545e-23 0.000143562 -8.22744e-23 9.80785e-40)
(3.46121e-05 6.73316e-05 2.76893e-23 0.000137419 4.2196e-23 2.68826e-40)
(3.86712e-05 6.91094e-05 3.81641e-24 0.00012898 5.32076e-24 6.47554e-42)
(4.27234e-05 6.99341e-05 3.06755e-23 0.000118713 4.30853e-23 1.97893e-40)
(4.66283e-05 6.97102e-05 7.31886e-22 0.00010716 9.93043e-22 8.44207e-38)
(5.02423e-05 6.83654e-05 -7.65424e-22 9.48878e-05 -9.95909e-22 8.4413e-38)
(5.3444e-05 6.58624e-05 3.64669e-23 8.24459e-05 4.57972e-23 1.4816e-40)
(5.61565e-05 6.221e-05 -4.83835e-24 7.03402e-05 -5.8428e-24 4.44711e-42)
(5.8361e-05 5.7468e-05 3.57324e-23 5.90117e-05 4.11676e-23 9.73805e-41)
(6.00971e-05 5.17461e-05 -7.28021e-23 4.88237e-05 -8.00728e-23 4.33651e-40)
(6.14503e-05 4.51953e-05 -4.49291e-24 4.00511e-05 -4.64187e-24 1.41929e-42)
(6.25288e-05 3.79915e-05 0 3.28717e-05 0 0)
(6.34388e-05 3.03234e-05 1.37251e-22 2.73706e-05 1.20591e-22 1.0631e-39)
(6.42704e-05 2.23826e-05 -1.40409e-22 2.35443e-05 -1.11198e-22 1.10736e-39)
(6.50887e-05 1.43528e-05 1.34877e-22 2.13059e-05 9.32037e-23 8.90189e-40)
(6.59306e-05 6.40055e-06 -1.29457e-22 2.04954e-05 -7.63667e-23 8.15263e-40)
(6.68228e-05 -1.32475e-06 -7.88382e-24 2.08988e-05 -3.75833e-24 2.74861e-42)
(6.78091e-05 -8.68454e-06 -1.20716e-22 2.22662e-05 -4.49282e-23 5.95476e-40)
(6.88384e-05 -1.55701e-05 3.50706e-22 2.43258e-05 9.15825e-23 4.78447e-39)
(6.81374e-05 -2.25977e-05 -2.44843e-22 2.72148e-05 -3.47961e-23 2.31092e-39)
(4.899e-06 1.89192e-05 2.60739e-23 7.5792e-05 6.08435e-23 5.1306e-39)
(6.59602e-06 2.37906e-05 -3.46551e-23 8.88682e-05 -8.1166e-23 6.55002e-39)
(8.69293e-06 2.91105e-05 -4.20115e-23 0.000101007 -9.37099e-23 6.3716e-39)
(1.10764e-05 3.46109e-05 4.99985e-23 0.000112233 1.05398e-22 6.54501e-39)
(1.3744e-05 4.01712e-05 -5.53458e-23 0.000122142 -1.10825e-22 5.51473e-39)
(1.672e-05 4.56922e-05 6.81213e-23 0.000130313 1.28224e-22 6.3759e-39)
(2.00239e-05 5.10615e-05 2.23395e-24 0.000136393 3.91756e-24 5.19405e-42)
(2.36657e-05 5.61643e-05 0 0.000140143 0 0)
(2.7741e-05 6.10503e-05 -4.67691e-23 0.000141708 -7.4106e-23 1.2047e-39)
(3.21586e-05 6.53947e-05 -3.23753e-24 0.000140546 -5.46087e-24 1.12196e-42)
(3.69644e-05 6.91416e-05 -3.52083e-24 0.000136735 -5.64362e-24 9.38511e-43)
(4.20467e-05 7.21649e-05 6.50958e-23 0.000130671 8.70365e-23 1.14955e-39)
(4.72931e-05 7.4348e-05 3.19052e-23 0.000122704 4.10683e-23 2.01008e-40)
(5.25437e-05 7.55712e-05 -5.46543e-23 0.000113257 -6.71341e-23 5.03057e-40)
(5.76012e-05 7.57198e-05 9.84887e-22 0.000102788 1.16985e-21 1.2563e-37)
(6.22643e-05 7.47013e-05 -9.91634e-22 9.17534e-05 -1.13254e-21 1.16045e-37)
(6.63603e-05 7.24589e-05 -6.19128e-23 8.0586e-05 -6.85498e-23 3.58115e-40)
(6.97751e-05 6.89837e-05 4.75211e-23 6.9676e-05 5.08169e-23 1.92039e-40)
(7.24702e-05 6.43224e-05 8.45651e-23 5.93668e-05 8.70347e-23 4.85924e-40)
(7.4484e-05 5.85775e-05 4.50367e-24 4.99508e-05 4.19852e-24 6.65426e-43)
(7.59165e-05 5.18999e-05 4.34363e-24 4.1665e-05 3.76325e-24 6.20755e-43)
(7.69028e-05 4.44742e-05 -8.33317e-23 3.46839e-05 -7.34396e-23 3.74902e-40)
(7.75844e-05 3.65033e-05 0 2.91154e-05 0 0)
(7.80878e-05 2.81945e-05 -5.04309e-24 2.49984e-05 -3.69692e-24 1.12085e-42)
(7.85109e-05 1.97473e-05 1.43644e-22 2.23014e-05 9.46423e-23 8.24715e-40)
(7.89161e-05 1.13425e-05 -1.51208e-22 2.09255e-05 -8.69801e-23 9.17404e-40)
(7.93525e-05 3.14406e-06 1.44305e-22 2.07194e-05 6.97204e-23 7.46318e-40)
(7.98927e-05 -4.68865e-06 -1.33691e-22 2.1488e-05 -5.21958e-23 6.39791e-40)
(8.05048e-05 -1.20323e-05 -1.29595e-22 2.30025e-05 -3.76307e-23 5.35548e-40)
(7.88896e-05 -1.97586e-05 1.45498e-22 2.54083e-05 2.69944e-23 6.89283e-40)
(6.14233e-06 2.17991e-05 0 7.98376e-05 0 0)
(8.12214e-06 2.6832e-05 -3.41024e-23 9.15167e-05 -7.44518e-23 5.36477e-39)
(1.05209e-05 3.22474e-05 4.95589e-23 0.000102259 1.01334e-22 7.97176e-39)
(1.32711e-05 3.7846e-05 -5.58183e-23 0.000111994 -1.07259e-22 6.84963e-39)
(1.63943e-05 4.35247e-05 6.16973e-23 0.000120362 1.10386e-22 6.23228e-39)
(1.99324e-05 4.91913e-05 -6.73053e-23 0.00012702 -1.13036e-22 5.14023e-39)
(2.39139e-05 5.47323e-05 7.71648e-23 0.000131696 1.20144e-22 5.27813e-39)
(2.83983e-05 6.00889e-05 5.80443e-24 0.000134288 8.44074e-24 2.20608e-41)
(3.34288e-05 6.52156e-05 3.28391e-24 0.000134874 4.48934e-24 5.29492e-42)
(3.89647e-05 6.98349e-05 3.68095e-24 0.000133 4.74409e-24 5.04018e-42)
(4.50128e-05 7.38998e-05 4.13667e-24 0.000128957 5.07038e-24 4.77057e-42)
(5.14373e-05 7.72687e-05 -2.26514e-24 0.000123067 -2.63891e-24 1.11356e-42)
(5.80867e-05 7.98199e-05 4.14474e-23 0.000115663 4.63202e-23 2.84796e-40)
(6.47424e-05 8.14217e-05 -2.09599e-23 0.000107117 -2.21834e-23 6.93063e-41)
(7.11427e-05 8.19461e-05 1.21692e-21 9.7804e-05 1.26548e-21 1.58197e-37)
(7.70222e-05 8.12835e-05 -1.32232e-21 8.808e-05 -1.32764e-21 1.6991e-37)
(8.21523e-05 7.93567e-05 -2.37531e-23 7.82637e-05 -2.33291e-23 3.78849e-41)
(8.63785e-05 7.61356e-05 4.28609e-23 6.86363e-05 4.07546e-23 1.29725e-40)
(8.96424e-05 7.1647e-05 -3.08946e-24 5.94463e-05 -2.84745e-24 5.54234e-43)
(9.19822e-05 6.59785e-05 -1.23597e-23 5.09144e-05 -1.09874e-23 7.85462e-42)
(9.35157e-05 5.92729e-05 -6.15331e-24 4.32348e-05 -5.23025e-24 1.74713e-42)
(9.44091e-05 5.17153e-05 -6.0726e-24 3.65696e-05 -4.88847e-24 1.54969e-42)
(9.48429e-05 4.3516e-05 -1.19184e-23 3.10407e-05 -8.97304e-24 5.50045e-42)
(9.4984e-05 3.48949e-05 1.95575e-22 2.67217e-05 1.35821e-22 1.33919e-39)
(9.49675e-05 2.60656e-05 -1.92736e-22 2.36301e-05 -1.21746e-22 1.30188e-39)
(9.48854e-05 1.72235e-05 1.73769e-22 2.17244e-05 9.68613e-23 9.38733e-40)
(9.48146e-05 8.54844e-06 -1.60346e-22 2.09138e-05 -7.74215e-23 8.05166e-40)
(9.48579e-05 2.22829e-07 1.4267e-22 2.10604e-05 5.7317e-23 5.70978e-40)
(9.50013e-05 -7.60925e-06 -1.70468e-22 2.19826e-05 -5.48901e-23 8.17363e-40)
(9.24208e-05 -1.61072e-05 0 2.3794e-05 0 0)
(7.7991e-06 2.50658e-05 0 8.28441e-05 0 0)
(1.01717e-05 3.02891e-05 -2.53213e-24 9.29723e-05 -4.97591e-24 2.62563e-41)
(1.29743e-05 3.58108e-05 4.33511e-23 0.000102242 7.96032e-23 5.04808e-39)
(1.62079e-05 4.15087e-05 1.04473e-26 0.000110431 3.67525e-25 2.70151e-42)
(1.992e-05 4.72951e-05 -6.93045e-23 0.000117236 -1.08769e-22 6.76748e-39)
(2.41696e-05 5.30812e-05 -5.08859e-24 0.000122389 -7.44806e-24 2.55434e-41)
(2.89945e-05 5.8753e-05 -5.73247e-24 0.000125701 -7.68903e-24 2.48481e-41)
(3.45152e-05 6.43224e-05 4.61933e-23 0.000127222 5.82787e-23 1.14077e-39)
(4.06964e-05 6.96108e-05 -6.37489e-23 0.000126875 -7.48303e-23 1.72282e-39)
(4.75664e-05 7.44445e-05 -6.0276e-26 0.000124443 -1.00939e-25 1.21488e-46)
(5.50716e-05 7.87537e-05 3.73445e-23 0.000120273 3.9462e-23 3.20713e-40)
(6.30589e-05 8.24081e-05 -4.09645e-23 0.000114658 -4.08374e-23 3.24575e-40)
(7.13241e-05 8.52837e-05 1.94544e-23 0.000107907 1.88603e-23 5.25057e-41)
(7.9583e-05 8.72448e-05 -2.38648e-23 0.000100337 -2.21616e-23 6.94545e-41)
(8.7503e-05 8.81549e-05 1.55149e-21 9.22457e-05 1.41379e-21 2.15995e-37)
(9.47492e-05 8.78894e-05 -1.62704e-21 8.38904e-05 -1.43963e-21 2.15998e-37)
(0.000101034 8.63496e-05 -2.7421e-23 7.54863e-05 -2.3842e-23 4.64959e-41)
(0.000106162 8.34792e-05 3.16643e-23 6.72129e-05 2.6897e-23 5.81455e-41)
(0.000110055 7.92787e-05 -5.32397e-23 5.92284e-05 -4.41222e-23 1.29658e-40)
(0.000112753 7.38125e-05 7.15431e-23 5.1683e-05 5.77187e-23 2.26095e-40)
(0.000114397 6.72071e-05 -4.51629e-26 4.47241e-05 -2.35847e-26 6.67861e-47)
(0.000115186 5.96398e-05 -1.11702e-22 3.84938e-05 -8.28297e-23 4.16124e-40)
(0.000115345 5.1322e-05 1.24236e-22 3.31196e-05 8.75965e-23 5.12687e-40)
(0.000115086 4.24813e-05 1.3519e-23 2.87011e-05 8.83885e-24 5.41516e-42)
(0.000114583 3.33434e-05 1.29923e-23 2.52972e-05 7.86026e-24 4.74671e-42)
(0.000113962 2.41167e-05 -2.01753e-22 2.29186e-05 -1.09415e-22 1.04574e-39)
(0.000113333 1.49989e-05 2.71365e-24 2.15301e-05 1.64237e-24 3.11314e-42)
(0.000112832 6.19454e-06 2.1525e-22 2.10525e-05 8.8915e-23 1.13821e-39)
(0.000112461 -2.12926e-06 0 2.13545e-05 0 0)
(0.000108887 -1.14343e-05 0 2.24812e-05 0 0)
(1.00138e-05 2.87267e-05 0 8.45933e-05 0 0)
(1.29071e-05 3.41372e-05 4.93649e-23 9.30578e-05 8.63067e-23 8.10141e-39)
(1.62306e-05 3.97483e-05 7.34047e-26 0.000100803 4.25275e-25 2.49826e-42)
(2.00799e-05 4.55172e-05 -1.88155e-26 0.000107426 3.31067e-25 3.00224e-42)
(2.45319e-05 5.13704e-05 -1.51303e-22 0.00011268 -2.04357e-22 2.70533e-38)
(2.96604e-05 5.7221e-05 9.08271e-23 0.000116379 1.12466e-22 7.26261e-39)
(3.55205e-05 6.29667e-05 6.57775e-24 0.000118417 7.58164e-24 2.71437e-41)
(4.22604e-05 6.86477e-05 0 0.000118949 0 0)
(4.98131e-05 7.40128e-05 -6.35269e-23 0.000117777 -6.39887e-23 1.37733e-39)
(5.82343e-05 7.89735e-05 7.10808e-23 0.000114934 6.65951e-23 1.40955e-39)
(6.74172e-05 8.34469e-05 -4.22064e-23 0.000110761 -3.81301e-23 3.51779e-40)
(7.71825e-05 8.73216e-05 -1.10977e-25 0.000105529 -6.14828e-25 7.10882e-43)
(8.72652e-05 9.04795e-05 5.0276e-23 9.95186e-05 4.16605e-23 3.31328e-40)
(9.73084e-05 9.27878e-05 -1.68469e-24 9.29917e-05 -1.36798e-24 2.84752e-43)
(0.000106903 9.41059e-05 1.90091e-21 8.61708e-05 1.52115e-21 2.76067e-37)
(0.000115641 9.42947e-05 -1.99357e-21 7.92255e-05 -1.55992e-21 2.7632e-37)
(0.000123175 9.32314e-05 1.95398e-24 7.22764e-05 1.51199e-24 2.10063e-43)
(0.000129268 9.08287e-05 6.40803e-23 6.54101e-05 4.88977e-23 1.82484e-40)
(0.000133825 8.70535e-05 -1.68812e-25 5.87012e-05 -2.022e-25 7.22459e-43)
(0.000136894 8.19388e-05 -8.18776e-23 5.22312e-05 -6.02197e-23 2.48279e-40)
(0.000138638 7.55867e-05 1.38063e-22 4.60987e-05 9.84486e-23 5.83367e-40)
(0.000139299 6.8159e-05 -1.29326e-22 4.04203e-05 -8.9374e-23 5.05953e-40)
(0.000139147 5.98618e-05 0 3.53202e-05 0 0)
(0.000138441 5.09257e-05 -1.53857e-23 3.0915e-05 -9.58334e-24 5.91571e-42)
(0.000137402 4.15851e-05 2.39819e-22 2.72969e-05 1.38254e-22 1.29838e-39)
(0.000136192 3.20606e-05 -4.82598e-22 2.45214e-05 -2.55568e-22 5.14233e-39)
(0.000134956 2.25675e-05 2.84792e-24 2.26047e-05 1.78865e-24 3.42843e-42)
(0.000133864 1.33325e-05 -1.10673e-23 2.15234e-05 -4.27284e-24 1.88744e-42)
(0.000132936 4.54386e-06 2.13252e-22 2.11994e-05 7.69901e-23 8.90519e-40)
(0.000128368 -5.55937e-06 0 2.15801e-05 0 0)
(1.29607e-05 3.27425e-05 5.42244e-24 8.48932e-05 8.78997e-24 1.2873e-40)
(1.65198e-05 3.82973e-05 0 9.16297e-05 0 0)
(2.04962e-05 4.39511e-05 4.00028e-24 9.78322e-05 5.49268e-24 3.09672e-41)
(2.51091e-05 4.97328e-05 -7.0199e-23 0.000102907 -8.75135e-23 6.80907e-39)
(3.04659e-05 5.55803e-05 8.76746e-23 0.000106664 9.90253e-23 8.01797e-39)
(3.66518e-05 6.14085e-05 -1.02109e-22 0.000108999 -1.06605e-22 7.56386e-39)
(4.37559e-05 6.71482e-05 1.17067e-22 0.000109897 1.11538e-22 7.77351e-39)
(5.19056e-05 7.28118e-05 6.70034e-23 0.000109526 6.01683e-23 1.7904e-39)
(6.10544e-05 7.81518e-05 -1.61332e-22 0.000107682 -1.35434e-22 8.02243e-39)
(7.12402e-05 8.31399e-05 -5.58716e-24 0.000104589 -5.46328e-24 1.72451e-42)
(8.23152e-05 8.76939e-05 8.84634e-23 0.000100542 6.68797e-23 1.46795e-39)
(9.406e-05 9.17258e-05 -5.2057e-23 9.57992e-05 -3.86816e-23 3.60548e-40)
(0.000106141 9.51324e-05 2.80486e-23 9.06069e-05 1.97921e-23 9.925e-41)
(0.000118124 9.77898e-05 4.74254e-23 8.51749e-05 3.35533e-23 1.98302e-40)
(0.000129518 9.95554e-05 2.26838e-21 7.96566e-05 1.59791e-21 3.40099e-37)
(0.000139841 0.000100275 -2.4086e-21 7.41426e-05 -1.67285e-21 3.49549e-37)
(0.000148685 9.97983e-05 5.07154e-23 6.86703e-05 3.51487e-23 1.19721e-40)
(0.000155774 9.80008e-05 3.62935e-23 6.32442e-05 2.50013e-23 4.4815e-41)
(0.000161001 9.48083e-05 -7.37209e-23 5.78626e-05 -5.03567e-23 1.97878e-40)
(0.000164424 9.02149e-05 1.66837e-22 5.25417e-05 1.12179e-22 8.07305e-40)
(0.000166239 8.429e-05 8.79042e-24 4.73306e-05 5.31852e-24 1.07049e-42)
(0.000166728 7.71733e-05 -2.75086e-22 4.23152e-05 -1.76796e-22 1.85663e-39)
(0.000166213 6.90595e-05 1.44825e-22 3.76087e-05 8.99985e-23 4.92025e-40)
(0.000165007 6.01774e-05 2.81539e-22 3.33361e-05 1.65794e-22 1.60074e-39)
(0.000163376 5.0767e-05 -2.76574e-22 2.96142e-05 -1.54357e-22 1.5567e-39)
(0.000161525 4.10601e-05 2.65863e-22 2.65352e-05 1.37138e-22 1.27319e-39)
(0.000159633 3.1288e-05 -2.7672e-22 2.41616e-05 -1.31091e-22 1.38873e-39)
(0.000157908 2.17003e-05 1.57798e-23 2.25207e-05 6.66354e-24 4.12287e-42)
(0.000156383 1.25034e-05 0 2.15862e-05 0 0)
(0.000150847 1.65758e-06 -3.0932e-23 2.11926e-05 -9.26027e-24 1.42491e-41)
(1.68453e-05 3.70162e-05 -6.31455e-24 8.35912e-05 -8.89187e-24 1.39219e-40)
(2.12304e-05 4.26312e-05 6.31396e-23 8.85909e-05 7.93278e-23 9.55561e-39)
(2.60042e-05 4.82497e-05 -7.11971e-23 9.3274e-05 -8.03008e-23 8.78554e-39)
(3.15399e-05 5.39542e-05 -5.30879e-24 9.68602e-05 -5.48854e-24 3.36088e-41)