/*--------------------------------*- C++ -*----------------------------------*\
  =========                 |
  \\      /  F ield         | OpenFOAM: The Open Source CFD Toolbox
   \\    /   O peration     | Website:  https://openfoam.org
    \\  /    A nd           | Version:  12
     \\/     M anipulation  |
\*---------------------------------------------------------------------------*/
FoamFile
{
    format      ascii;
    class       volScalarField;
    location    "280";
    object      p;
}
// * * * * * * * * * * * * * * * * * * * * * * * * * * * * * * * * * * * * * //

dimensions      [0 2 -2 0 0 0 0];

internalField   nonuniform List<scalar> 
6750
(
0.0216203
0.0215982
0.0215688
0.0214053
0.0203768
0.0231387
0.0231022
0.0229748
0.0227089
0.0223496
0.0249315
0.0248723
0.0247417
0.0245436
0.0243907
0.0268121
0.0267182
0.026594
0.0264536
0.0263767
0.0286792
0.0285413
0.0284073
0.0282947
0.028256
0.0304531
0.0302667
0.0301119
0.0300092
0.0299879
0.0320853
0.0318492
0.0316696
0.0315698
0.0315569
0.0335465
0.0332613
0.0330571
0.0329581
0.0329504
0.0348183
0.0344866
0.0342597
0.0341614
0.0341573
0.0358903
0.035516
0.0352695
0.0351726
0.0351712
0.0367591
0.0363476
0.0360856
0.0359906
0.035991
0.0374279
0.0369856
0.0367123
0.0366197
0.0366212
0.0379062
0.0374391
0.0371597
0.0370694
0.0370712
0.038208
0.037722
0.0374427
0.0373536
0.0373547
0.0383463
0.0378546
0.0375807
0.0374891
0.0374881
0.0383463
0.0378547
0.0375807
0.0374892
0.0374881
0.0382081
0.0377221
0.0374428
0.0373537
0.0373548
0.0379064
0.0374393
0.0371598
0.0370696
0.0370714
0.0374282
0.0369859
0.0367126
0.0366199
0.0366214
0.0367594
0.036348
0.0360859
0.0359909
0.0359913
0.0358907
0.0355164
0.03527
0.035173
0.0351716
0.0348188
0.0344871
0.0342602
0.0341619
0.0341578
0.0335471
0.033262
0.0330577
0.0329587
0.032951
0.032086
0.0318499
0.0316704
0.0315705
0.0315576
0.0304539
0.0302676
0.0301127
0.03001
0.0299887
0.0286801
0.0285422
0.0284082
0.0282956
0.0282569
0.0268131
0.0267192
0.026595
0.0264546
0.0263777
0.0249326
0.0248734
0.0247428
0.0245447
0.0243918
0.0231399
0.0231034
0.022976
0.0227101
0.0223508
0.0216216
0.0215996
0.0215701
0.0214066
0.0203782
0.014198
0.0147906
0.0162589
0.0173438
0.0181303
0.0187552
0.0192449
0.0196108
0.0198808
0.0200652
0.0201272
0.0201409
0.0200783
0.0199354
0.0197111
0.0194016
0.019004
0.0185211
0.0179563
0.0173095
0.0165753
0.0158582
0.0151032
0.0143254
0.0135449
0.0127745
0.0120238
0.0113075
0.0106355
0.00995267
0.0181077
0.0189033
0.019703
0.0201039
0.0203327
0.020474
0.0205298
0.0205094
0.0204414
0.0203232
0.0201135
0.0199264
0.019721
0.0195001
0.0192624
0.0189988
0.0186968
0.0183454
0.0179339
0.0174593
0.0169398
0.0163064
0.0156418
0.0149371
0.0142002
0.0134425
0.0126723
0.0119038
0.0111774
0.0104729
0.0205882
0.0207718
0.0210867
0.0212406
0.0213163
0.0213245
0.0212531
0.0211128
0.0209251
0.0206542
0.0203046
0.0199694
0.0196062
0.019226
0.0188348
0.0184324
0.0180155
0.017579
0.0171171
0.0166252
0.016102
0.015547
0.0149666
0.0143603
0.0137328
0.0130901
0.0124333
0.011773
0.0111964
0.0107794
0.0220311
0.0218069
0.0219357
0.0220185
0.0220276
0.0219602
0.0218113
0.0215978
0.0213285
0.0209343
0.0204881
0.0200287
0.0195271
0.0190001
0.0184594
0.0179128
0.0173659
0.0168215
0.0162805
0.0157415
0.0152028
0.0146684
0.0141349
0.0135992
0.0130612
0.0125213
0.0119722
0.0114166
0.0109836
0.0109014
0.0231216
0.0227495
0.0227961
0.0228082
0.0227338
0.022579
0.0223441
0.0220446
0.0216783
0.0211684
0.0206261
0.0200464
0.0194195
0.018765
0.0180985
0.0174331
0.01678
0.0161475
0.0155406
0.0149611
0.0144084
0.0138817
0.0133776
0.0128913
0.012419
0.011957
0.0114916
0.011016
0.0106914
0.0109136
0.0240687
0.0236576
0.0236393
0.0235712
0.0234109
0.0231696
0.0228484
0.0224593
0.0219857
0.0213706
0.0207283
0.0200329
0.019289
0.0185185
0.0177399
0.0169704
0.0162251
0.0155158
0.0148504
0.0142325
0.0136622
0.0131368
0.0126519
0.012201
0.0117783
0.0113773
0.0109791
0.0105696
0.0103354
0.0108303
0.0249066
0.0245016
0.0244252
0.0242804
0.0240413
0.0237192
0.0233162
0.0228406
0.0222544
0.0215455
0.0208031
0.0199978
0.0191441
0.0182654
0.017383
0.0165174
0.0156868
0.0149057
0.014184
0.0135268
0.0129345
0.012404
0.0119296
0.0115037
0.0111186
0.010766
0.0104227
0.0100693
0.00991516
0.0106518
0.0256558
0.0252869
0.02516
0.0249436
0.0246303
0.0242304
0.0237494
0.0231894
0.0224901
0.0216975
0.020855
0.0199447
0.0189869
0.0180064
0.0170268
0.0160712
0.0151604
0.0143111
0.0135347
0.0128373
0.0122198
0.0116788
0.0112077
0.0107979
0.0104407
0.0101258
0.00982642
0.00951999
0.00943689
0.0103815
0.0263383
0.0260269
0.0258559
0.0255706
0.0251853
0.0247104
0.024154
0.023505
0.0227014
0.0218277
0.0208862
0.0198751
0.0188181
0.0177409
0.0166694
0.0156289
0.0146421
0.0137275
0.0128977
0.0121596
0.0115144
0.0109585
0.0104849
0.010084
0.00974628
0.00945998
0.00919508
0.00892737
0.00890724
0.0100254
0.026971
0.0267318
0.0265211
0.0261684
0.0257129
0.0251665
0.024534
0.023788
0.0228947
0.0219365
0.0208985
0.0197905
0.0186381
0.0174683
0.0163088
0.0151871
0.0141274
0.0131495
0.0122671
0.0114877
0.0108127
0.0102384
0.00975735
0.00935943
0.00903422
0.00876885
0.00853029
0.00829425
0.00833035
0.0095897
0.0275663
0.0274092
0.0271625
0.0267428
0.0262175
0.0256016
0.0248926
0.0240458
0.023073
0.0220273
0.0208947
0.0196925
0.0184473
0.0171877
0.0159431
0.0147426
0.0136119
0.0125719
0.0116371
0.0108155
0.0101086
0.00951288
0.00902022
0.00862014
0.00830164
0.00805068
0.00783156
0.00762122
0.00770787
0.00907939
0.0281343
0.0280666
0.0277868
0.0272997
0.0267045
0.0260212
0.0252324
0.0242861
0.0232383
0.022103
0.020877
0.0195821
0.0182459
0.0168982
0.0155702
0.0142923
0.0130915
0.0119897
0.011002
0.010137
0.00939623
0.00877599
0.008268
0.00786133
0.00754451
0.00730234
0.00709675
0.006907
0.00703935
0.00849814
0.028685
0.0287112
0.028401
0.0278469
0.0271831
0.0264281
0.0255519
0.0245186
0.0233922
0.0221659
0.0208472
0.0194604
0.0180338
0.0165986
0.0151878
0.0138328
0.0125619
0.0113977
0.0103562
0.00944601
0.00866905
0.0080214
0.00749456
0.00707727
0.00675764
0.00651931
0.00632206
0.00614848
0.00632235
0.0078478
0.0292278
0.0293497
0.0290118
0.0283904
0.0276576
0.0268293
0.025859
0.0247474
0.0235369
0.0222185
0.020807
0.0193279
0.0178105
0.0162877
0.0147934
0.0133607
0.0120187
0.0107909
0.00969367
0.00873613
0.0079203
0.00724216
0.00669298
0.00626123
0.00593463
0.00569562
0.00550205
0.00534069
0.00555239
0.00712806
0.0297702
0.0299914
0.0296275
0.0289381
0.0281358
0.027229
0.0261628
0.0249753
0.0236758
0.0222637
0.020758
0.0191851
0.0175755
0.0159635
0.0143843
0.0128721
0.0114571
0.0101634
0.00900799
0.00800033
0.00714253
0.00643052
0.00585539
0.00540534
0.00506772
0.00482375
0.00462949
0.0044767
0.00472295
0.00633624
0.0303195
0.0306477
0.0302603
0.0295025
0.0286235
0.0276275
0.0264748
0.0252054
0.0238125
0.0223041
0.0207016
0.0190322
0.0173279
0.015624
0.0139572
0.0123627
0.0108716
0.00950894
0.00829211
0.00723084
0.00632743
0.00557776
0.00497274
0.00450038
0.00414764
0.00389445
0.00369525
0.0035475
0.00382531
0.00546696
0.0308857
0.0313311
0.0309216
0.0300922
0.0291301
0.0280352
0.0268015
0.0254415
0.0239504
0.022342
0.0206389
0.0188691
0.0170661
0.0152664
0.0135081
0.0118274
0.0102562
0.00882042
0.00753793
0.00641879
0.00546546
0.00467377
0.00403451
0.00353549
0.00316329
0.00289646
0.002688
0.0025417
0.00284822
0.0045118
0.0314857
0.0320549
0.0316252
0.0307145
0.0296595
0.0284675
0.0271477
0.0256887
0.0240938
0.02238
0.0205708
0.0186953
0.0167881
0.0148873
0.0130322
0.01126
0.00960354
0.00808938
0.00673602
0.00555386
0.00454548
0.00370673
0.00302826
0.00249773
0.0021013
0.00181609
0.00159375
0.00144508
0.00177749
0.00345882
0.0321433
0.0328292
0.0323817
0.0313841
0.0302216
0.0289358
0.0275182
0.0259522
0.0242468
0.0224205
0.0204979
0.0185094
0.016491
0.0144823
0.0125234
0.0106529
0.00890463
0.00730564
0.00587508
0.00462368
0.00355419
0.00266247
0.00193905
0.00137146
0.000945429
0.000636556
0.000395253
0.000239928
0.000595292
0.00229187
0.0328771
0.0336734
0.0332089
0.0321136
0.0308341
0.029449
0.0279218
0.0262394
0.0244141
0.0224659
0.0204204
0.0183096
0.0161709
0.0140451
0.0119739
0.00999675
0.00814837
0.00645664
0.00494119
0.00361309
0.00247529
0.00152363
0.000748573
0.000137487
-0.000324348
-0.000662941
-0.000929014
-0.00109593
-0.000720916
0.000989511
0.033713
0.0346208
0.0341279
0.0329149
0.0315199
0.0300205
0.0283699
0.0265585
0.0246009
0.0225182
0.0203375
0.0180924
0.0158217
0.0135677
0.0113733
0.00927904
0.00732055
0.00552642
0.00391679
0.00250308
0.00128838
0.000268546
-0.000566066
-0.00122822
-0.00173313
-0.00210853
-0.00240616
-0.00259056
-0.00219987
-0.000476511
0.0346919
0.035693
0.0351591
0.033823
0.0323005
0.0306664
0.0288752
0.0269187
0.0248123
0.022579
0.0202473
0.0178525
0.0154351
0.0130387
0.0107076
0.00848334
0.00640246
0.0044942
0.0027792
0.00126916
-3.27012e-05
-0.00113055
-0.00203413
-0.00275635
-0.00331302
-0.00373364
-0.00407096
-0.00428003
-0.00387876
-0.00214365
0.0358602
0.0369349
0.036343
0.0348754
0.0331999
0.0314072
0.0294536
0.0273303
0.0250538
0.0226487
0.0201456
0.0175815
0.0149986
0.0124421
0.0099574
0.00758722
0.00536889
0.00333221
0.00149825
-0.000121061
-0.00152245
-0.00271013
-0.00369399
-0.00448713
-0.005106
-0.00558202
-0.00596884
-0.00621158
-0.00580661
-0.00406222
0.0372859
0.0384071
0.0377399
0.0361128
0.0342515
0.03227
0.0301248
0.0278057
0.0253304
0.0227258
0.0200247
0.017266
0.0144936
0.0117545
0.0090951
0.00655922
0.00418483
0.00200221
3.26899e-05
-0.00171168
-0.00322764
-0.00451953
-0.00559745
-0.00647471
-0.00716852
-0.00771234
-0.00816075
-0.00844853
-0.00804959
-0.00630119
0.0390818
0.0402034
0.0394218
0.0375903
0.0355012
0.0332904
0.0309134
0.0283589
0.0256463
0.0228053
0.0198709
0.0168845
0.0138917
0.010941
0.00808025
0.00535379
0.00280014
0.000449797
-0.00167584
-0.00356478
-0.00521389
-0.00662775
-0.00781671
-0.00879441
-0.00957891
-0.0102059
-0.0107308
-0.0110782
-0.0106996
-0.00895809
0.041375
0.0424474
0.0414884
0.0393912
0.0370156
0.0345176
0.031852
0.0290068
0.0260039
0.0228758
0.0196606
0.0164021
0.013148
0.00994816
0.00685141
0.00390257
0.00114016
-0.00140547
-0.00371322
-0.00577136
-0.00757707
-0.00913526
-0.0104566
-0.011555
-0.0124497
-0.0131785
-0.013798
-0.0142236
-0.0138869
-0.0121734
0.0444216
0.045333
0.0440958
0.041643
0.0388941
0.0360233
0.0329855
0.0297693
0.0263997
0.0229129
0.0193507
0.0157594
0.0121889
0.00869015
0.00531216
0.00209949
-0.000910079
-0.00368708
-0.00621122
-0.00847144
-0.0104654
-0.0121981
-0.0136808
-0.0149276
-0.0159585
-0.0168132
-0.0175494
-0.0180765
-0.0178149
-0.0161703
0.0486038
0.0491428
0.0474516
0.0445061
0.041258
0.0378908
0.0343607
0.030659
0.026815
0.0228698
0.0188693
0.014863
0.0109025
0.00703931
0.00332162
-0.000207636
-0.00351278
-0.00656649
-0.00935024
-0.0118542
-0.0140772
-0.016025
-0.0177082
-0.0191414
-0.0203453
-0.0213603
-0.0222436
-0.0229054
-0.0227774
-0.0212871
0.054794
0.0545859
0.0521497
0.0485035
0.0445498
0.0404613
0.0362065
0.0317907
0.0272548
0.0226496
0.0180283
0.0134445
0.00895168
0.00459987
0.000434331
-0.0035063
-0.00719091
-0.0105963
-0.0137066
-0.0165125
-0.019016
-0.0212358
-0.0231678
-0.0248265
-0.026233
-0.0274255
-0.028457
-0.0292531
-0.0293217
-0.0281524
0.0656015
0.0637066
0.0597158
0.054839
0.0497214
0.0444593
0.0390494
0.033527
0.02795
0.0223789
0.016871
0.0114794
0.00625187
0.00122985
-0.00355233
-0.00806729
-0.0122942
-0.0162185
-0.0198318
-0.0231317
-0.0261144
-0.0287678
-0.0311175
-0.033172
-0.0349422
-0.0364538
-0.0377521
-0.0388263
-0.0393806
-0.0388608
0.0178644
0.0188019
0.0205494
0.0219308
0.0230843
0.0241563
0.0251806
0.0261661
0.0271229
0.0280603
0.0289865
0.0299095
0.0308373
0.0317784
0.0327413
0.0337363
0.0347764
0.0358776
0.0370591
0.0383421
0.0397543
0.0413351
0.0431322
0.0452113
0.0476615
0.0506178
0.0542657
0.0588179
0.0645018
0.071839
0.0221843
0.0231594
0.0242837
0.0252187
0.0260516
0.0268443
0.0276082
0.0283477
0.0290699
0.0297831
0.0304951
0.0312139
0.0319479
0.0327059
0.0334977
0.0343348
0.0352311
0.0362036
0.0372724
0.0384624
0.0398059
0.0413461
0.0431395
0.0452644
0.0478303
0.051
0.055008
0.0601762
0.066992
0.0760438
0.0244914
0.0253597
0.0262016
0.026952
0.0276793
0.0284001
0.0291111
0.0298135
0.030512
0.0312124
0.0319209
0.0326441
0.0333893
0.0341646
0.0349796
0.0358458
0.0367771
0.0377908
0.0389084
0.0401565
0.0415707
0.0431979
0.0451009
0.0473672
0.0501205
0.0535403
0.0578928
0.0635566
0.0711828
0.081463
0.0265031
0.0272626
0.0279894
0.0286603
0.0293239
0.02999
0.0306579
0.0313301
0.0320117
0.0327082
0.0334252
0.0341689
0.0349464
0.0357658
0.0366367
0.0375707
0.0385821
0.0396888
0.0409132
0.0422837
0.0438378
0.0456253
0.0477136
0.0501956
0.0532029
0.0569248
0.0616421
0.0677501
0.075991
0.0871023
0.0283803
0.0290472
0.0296846
0.0302846
0.0308885
0.031506
0.0321381
0.0327873
0.033458
0.0341548
0.034883
0.0356483
0.0364579
0.0373198
0.0382438
0.0392421
0.0403296
0.041525
0.0428516
0.0443399
0.0460294
0.0479726
0.0502403
0.0529303
0.0561798
0.0601856
0.0652386
0.0717449
0.0805305
0.0923906
0.0300942
0.0306792
0.0312409
0.0317816
0.0323384
0.0329201
0.0335273
0.0341622
0.0348285
0.0355303
0.0362726
0.0370608
0.037902
0.0388042
0.0397775
0.0408344
0.0419902
0.0432643
0.0446813
0.0462729
0.0480805
0.0501589
0.052582
0.0554512
0.0589087
0.0631579
0.0684991
0.0753518
0.0846233
0.0971912
0.0316421
0.0321541
0.0326517
0.033144
0.0336641
0.034219
0.0348089
0.0354356
0.0361022
0.0368126
0.0375712
0.0383835
0.0392562
0.0401974
0.0412174
0.0423288
0.0435473
0.0448929
0.0463912
0.0480749
0.0499868
0.0521836
0.0547415
0.0577651
0.0614005
0.0658567
0.0714428
0.078592
0.0882777
0.101474
0.0330194
0.0334657
0.0339084
0.0343613
0.0348525
0.0353873
0.0359654
0.0365882
0.0372583
0.0379791
0.0387549
0.0395909
0.0404937
0.0414713
0.0425342
0.043695
0.0449701
0.0463798
0.0479502
0.0497151
0.0517184
0.0540183
0.0566928
0.0598489
0.063636
0.0682676
0.0740606
0.0814602
0.0914853
0.105213
0.0342175
0.0346049
0.0350011
0.0354221
0.0358911
0.036411
0.0369813
0.037603
0.0382783
0.0390103
0.0398027
0.0406608
0.0415908
0.0426011
0.043702
0.0449063
0.0462307
0.0476959
0.0493286
0.0511631
0.0532444
0.0556318
0.0584048
0.0616723
0.0655862
0.0703639
0.0763285
0.0839357
0.0942291
0.108395
0.0352295
0.0355652
0.0359227
0.0363188
0.0367707
0.0372799
0.0378454
0.0384678
0.0391489
0.0398914
0.040699
0.0415766
0.0425305
0.0435688
0.0447021
0.0459433
0.0473092
0.0488209
0.0505054
0.0523979
0.0545437
0.0570031
0.0598569
0.0632154
0.0672325
0.0721285
0.078232
0.086007
0.0965043
0.111025
0.0360525
0.0363443
0.0366709
0.0370479
0.0374872
0.0379888
0.0385514
0.0391754
0.0398622
0.0406141
0.0414346
0.0423286
0.0433023
0.0443637
0.0455235
0.0467947
0.0481941
0.0497433
0.0514696
0.0534083
0.0556056
0.0581223
0.0610401
0.0644704
0.0685688
0.0735576
0.0797697
0.0876762
0.0983212
0.113124
0.0366885
0.036945
0.0372481
0.0376111
0.0380414
0.0385378
0.0390989
0.0397247
0.0404163
0.0411759
0.0420069
0.0429139
0.043903
0.0449825
0.0461628
0.0474572
0.0488825
0.0504605
0.0522187
0.0541928
0.0564292
0.0589894
0.0619556
0.0654402
0.0695997
0.0746582
0.0809517
0.0889571
0.0997018
0.114725
0.0371449
0.037375
0.0376615
0.0380149
0.0384392
0.0389322
0.0394925
0.0401198
0.0408153
0.0415807
0.0424194
0.0433358
0.0443363
0.0454289
0.046624
0.047935
0.0493789
0.0509774
0.0527584
0.0547577
0.057022
0.059613
0.0626135
0.0661364
0.0703391
0.0754465
0.0817972
0.0898724
0.100677
0.115868
0.0374332
0.0376462
0.0379222
0.0382698
0.0386904
0.0391815
0.0397415
0.0403701
0.041068
0.0418373
0.042681
0.0436036
0.0446113
0.0457122
0.0469168
0.0482384
0.0496942
0.0513058
0.0531012
0.0551164
0.0573984
0.0600089
0.0630311
0.0665781
0.070808
0.075946
0.0823327
0.0904516
0.101284
0.116597
0.0375687
0.0377734
0.0380444
0.0383893
0.0388083
0.0392985
0.0398585
0.0404877
0.0411869
0.0419581
0.0428042
0.0437298
0.044741
0.045846
0.0470551
0.0483818
0.0498432
0.0514611
0.0532635
0.0552863
0.0575767
0.0601966
0.0632291
0.0667876
0.0710305
0.0761831
0.0825868
0.0907264
0.101566
0.116949
0.0375687
0.0377734
0.0380444
0.0383893
0.0388083
0.0392986
0.0398585
0.0404877
0.041187
0.0419581
0.0428043
0.0437299
0.0447411
0.045846
0.0470551
0.0483819
0.0498433
0.0514612
0.0532635
0.0552864
0.0575767
0.0601966
0.0632291
0.0667876
0.0710305
0.0761831
0.0825868
0.0907264
0.101566
0.116949
0.0374333
0.0376464
0.0379223
0.0382699
0.0386905
0.0391816
0.0397416
0.0403701
0.0410681
0.0418374
0.0426811
0.0436037
0.0446114
0.0457123
0.0469169
0.0482385
0.0496942
0.0513059
0.0531013
0.0551165
0.0573984
0.060009
0.0630312
0.0665782
0.0708081
0.0759461
0.0823327
0.0904516
0.101284
0.116597
0.037145
0.0373752
0.0376617
0.0380151
0.0384393
0.0389324
0.0394926
0.04012
0.0408154
0.0415808
0.0424195
0.043336
0.0443364
0.045429
0.0466241
0.0479351
0.049379
0.0509775
0.0527585
0.0547578
0.057022
0.0596131
0.0626136
0.0661365
0.0703392
0.0754466
0.0817973
0.0898724
0.100677
0.115868
0.0366888
0.0369453
0.0372484
0.0376114
0.0380417
0.0385381
0.0390991
0.0397249
0.0404165
0.0411761
0.0420071
0.042914
0.0439032
0.0449827
0.046163
0.0474573
0.0488827
0.0504606
0.0522188
0.0541929
0.0564293
0.0589895
0.0619558
0.0654403
0.0695998
0.0746583
0.0809518
0.0889572
0.0997019
0.114725
0.0360528
0.0363446
0.0366713
0.0370482
0.0374875
0.0379891
0.0385517
0.0391757
0.0398624
0.0406143
0.0414349
0.0423288
0.0433025
0.044364
0.0455237
0.0467949
0.0481943
0.0497435
0.0514698
0.0534085
0.0556058
0.0581225
0.0610403
0.0644705
0.0685689
0.0735577
0.0797698
0.0876763
0.0983213
0.113124
0.0352299
0.0355656
0.0359231
0.0363192
0.0367711
0.0372803
0.0378457
0.0384681
0.0391492
0.0398918
0.0406993
0.0415769
0.0425307
0.0435691
0.0447023
0.0459435
0.0473094
0.0488211
0.0505057
0.0523981
0.0545439
0.0570033
0.0598571
0.0632155
0.0672327
0.0721286
0.0782321
0.0860071
0.0965044
0.111025
0.034218
0.0346054
0.0350015
0.0354226
0.0358915
0.0364114
0.0369817
0.0376034
0.0382787
0.0390106
0.0398031
0.0406611
0.0415912
0.0426014
0.0437023
0.0449066
0.046231
0.0476962
0.0493288
0.0511634
0.0532447
0.055632
0.058405
0.0616725
0.0655864
0.070364
0.0763287
0.0839359
0.0942292
0.108395
0.03302
0.0334662
0.0339089
0.0343618
0.0348531
0.0353878
0.0359659
0.0365886
0.0372587
0.0379796
0.0387554
0.0395913
0.040494
0.0414717
0.0425345
0.0436954
0.0449704
0.0463801
0.0479506
0.0497154
0.0517187
0.0540186
0.0566931
0.0598491
0.0636362
0.0682678
0.0740608
0.0814604
0.0914854
0.105213
0.0316428
0.0321548
0.0326523
0.0331446
0.0336647
0.0342196
0.0348095
0.0354361
0.0361028
0.0368131
0.0375717
0.038384
0.0392567
0.0401979
0.0412178
0.0423291
0.0435477
0.0448933
0.0463916
0.0480752
0.0499871
0.0521839
0.0547418
0.0577654
0.0614007
0.0658569
0.071443
0.0785922
0.0882778
0.101474
0.030095
0.03068
0.0312416
0.0317823
0.0323391
0.0329208
0.0335279
0.0341629
0.0348291
0.0355309
0.0362731
0.0370614
0.0379025
0.0388047
0.039778
0.0408348
0.0419906
0.0432647
0.0446817
0.0462733
0.0480808
0.0501592
0.0525823
0.0554515
0.058909
0.0631581
0.0684993
0.0753521
0.0846235
0.0971913
0.0283811
0.029048
0.0296854
0.0302854
0.0308892
0.0315068
0.0321388
0.032788
0.0334587
0.0341554
0.0348836
0.0356489
0.0364584
0.0373203
0.0382443
0.0392426
0.0403301
0.0415254
0.042852
0.0443403
0.0460298
0.0479729
0.0502407
0.0529307
0.0561801
0.0601859
0.0652388
0.0717452
0.0805307
0.0923907
0.0265041
0.0272636
0.0279903
0.0286612
0.0293247
0.0299909
0.0306586
0.0313308
0.0320124
0.0327089
0.0334258
0.0341695
0.034947
0.0357664
0.0366372
0.0375712
0.0385826
0.0396893
0.0409137
0.0422841
0.0438382
0.0456258
0.047714
0.050196
0.0532033
0.0569252
0.0616424
0.0677504
0.0759912
0.0871025
0.0244925
0.0253608
0.0262026
0.026953
0.0276802
0.028401
0.029112
0.0298143
0.0305128
0.0312132
0.0319216
0.0326448
0.0333899
0.0341653
0.0349803
0.0358464
0.0367777
0.0377914
0.0389089
0.040157
0.0415712
0.0431983
0.0451013
0.0473676
0.0501208
0.0535406
0.0578931
0.0635569
0.0711831
0.0814632
0.0221855
0.0231605
0.0242848
0.0252198
0.0260527
0.0268452
0.0276091
0.0283486
0.0290708
0.0297839
0.0304959
0.0312147
0.0319486
0.0327066
0.0334984
0.0343354
0.0352317
0.0362042
0.037273
0.038463
0.0398064
0.0413466
0.04314
0.0452648
0.0478307
0.0510004
0.0550084
0.0601765
0.0669923
0.076044
0.0178657
0.0188032
0.0205506
0.021932
0.0230854
0.0241573
0.0251816
0.0261671
0.0271238
0.0280612
0.0289874
0.0299103
0.0308381
0.0317792
0.032742
0.033737
0.034777
0.0358783
0.0370597
0.0383427
0.0397548
0.0413356
0.0431327
0.0452118
0.0476619
0.0506182
0.054266
0.0588182
0.0645021
0.0718392
0.0656017
0.0637069
0.0597161
0.0548393
0.0497217
0.0444597
0.0390498
0.0335274
0.0279504
0.0223793
0.0168714
0.0114798
0.00625231
0.00123031
-0.00355186
-0.0080668
-0.0122937
-0.016218
-0.0198312
-0.0231311
-0.0261139
-0.0287673
-0.031117
-0.0331714
-0.0349417
-0.0364533
-0.0377516
-0.0388257
-0.0393801
-0.0388603
0.0547943
0.0545862
0.0521501
0.0485038
0.0445502
0.0404616
0.0362069
0.0317911
0.0272552
0.0226501
0.0180287
0.013445
0.00895215
0.00460036
0.000434828
-0.00350579
-0.00719039
-0.0105958
-0.0137061
-0.016512
-0.0190154
-0.0212353
-0.0231673
-0.0248259
-0.0262324
-0.027425
-0.0284564
-0.0292526
-0.0293213
-0.0281519
0.0486042
0.0491431
0.047452
0.0445065
0.0412584
0.0378912
0.0343611
0.0306595
0.0268154
0.0228703
0.0188698
0.0148635
0.010903
0.00703982
0.00332214
-0.000207106
-0.00351224
-0.00656594
-0.00934969
-0.0118537
-0.0140767
-0.0160244
-0.0177076
-0.0191409
-0.0203448
-0.0213597
-0.0222431
-0.0229049
-0.022777
-0.0212867
0.044422
0.0453334
0.0440962
0.0416434
0.0388946
0.0360238
0.032986
0.0297698
0.0264002
0.0229134
0.0193512
0.0157599
0.0121894
0.00869068
0.0053127
0.00210004
-0.000909521
-0.00368652
-0.00621065
-0.00847087
-0.0104648
-0.0121976
-0.0136802
-0.014927
-0.0159579
-0.0168127
-0.0175488
-0.018076
-0.0178144
-0.0161699
0.0413755
0.0424478
0.0414889
0.0393917
0.0370161
0.0345181
0.0318525
0.0290074
0.0260044
0.0228763
0.0196612
0.0164026
0.0131485
0.00994872
0.00685198
0.00390315
0.00114074
-0.00140489
-0.00371263
-0.00577078
-0.00757649
-0.00913468
-0.010456
-0.0115545
-0.0124492
-0.013178
-0.0137975
-0.0142231
-0.0138864
-0.012173
0.0390823
0.0402038
0.0394223
0.0375908
0.0355017
0.0332909
0.0309139
0.0283594
0.0256469
0.0228058
0.0198715
0.016885
0.0138923
0.0109416
0.00808084
0.00535439
0.00280074
0.000450401
-0.00167524
-0.00356418
-0.00521329
-0.00662716
-0.00781612
-0.00879383
-0.00957835
-0.0102053
-0.0107302
-0.0110777
-0.0106991
-0.00895764
0.0372864
0.0384076
0.0377404
0.0361134
0.034252
0.0322706
0.0301254
0.0278063
0.025331
0.0227264
0.0200253
0.0172666
0.0144943
0.0117551
0.00909572
0.00655984
0.00418545
0.00200284
3.33146e-05
-0.00171106
-0.00322702
-0.00451892
-0.00559684
-0.00647412
-0.00716794
-0.00771177
-0.00816019
-0.00844799
-0.00804907
-0.00630073
0.0358607
0.0369355
0.0363435
0.0348759
0.0332005
0.0314078
0.0294542
0.027331
0.0250544
0.0226493
0.0201462
0.0175821
0.0149992
0.0124427
0.00995804
0.00758787
0.00536953
0.00333286
0.0014989
-0.000120418
-0.00152181
-0.00270949
-0.00369337
-0.00448652
-0.0051054
-0.00558143
-0.00596827
-0.00621102
-0.00580608
-0.00406174
0.0346924
0.0356936
0.0351597
0.0338236
0.0323011
0.030667
0.0288758
0.0269193
0.024813
0.0225796
0.0202479
0.0178531
0.0154357
0.0130394
0.0107083
0.00848401
0.00640313
0.00449487
0.00277987
0.00126983
-3.20431e-05
-0.0011299
-0.00203349
-0.00275572
-0.0033124
-0.00373304
-0.00407036
-0.00427945
-0.0038782
-0.00214315
0.0337136
0.0346214
0.0341285
0.0329155
0.0315205
0.0300212
0.0283705
0.0265592
0.0246016
0.0225189
0.0203382
0.018093
0.0158224
0.0135684
0.011374
0.00927972
0.00732124
0.0055271
0.00391748
0.00250377
0.00128906
0.000269218
-0.000565404
-0.00122756
-0.00173249
-0.0021079
-0.00240555
-0.00258996
-0.0021993
-0.000475993
0.0328778
0.0336741
0.0332095
0.0321143
0.0308347
0.0294497
0.0279225
0.0262401
0.0244148
0.0224666
0.0204211
0.0183103
0.0161716
0.0140458
0.0119746
0.00999746
0.00814908
0.00645734
0.00494189
0.0036138
0.00247598
0.00152432
0.000749255
0.000138158
-0.00032369
-0.000662297
-0.000928386
-0.00109532
-0.000720329
0.000990049
0.032144
0.0328299
0.0323824
0.0313848
0.0302223
0.0289365
0.0275189
0.0259529
0.0242475
0.0224213
0.0204986
0.0185101
0.0164918
0.014483
0.0125241
0.0106537
0.00890536
0.00730637
0.00587581
0.0046244
0.00355491
0.00266318
0.00193976
0.00137215
0.000946106
0.000637219
0.000395899
0.000240558
0.000595897
0.00229243
0.0314864
0.0320556
0.0316259
0.0307152
0.0296602
0.0284682
0.0271484
0.0256894
0.0240946
0.0223808
0.0205715
0.018696
0.0167888
0.0148881
0.0130329
0.0112607
0.0096043
0.00809012
0.00673677
0.00555461
0.00454622
0.00370746
0.00302899
0.00249844
0.002102
0.00181678
0.00159442
0.00144573
0.00177812
0.0034594
0.0308865
0.0313318
0.0309224
0.0300929
0.0291309
0.028036
0.0268022
0.0254423
0.0239512
0.0223428
0.0206396
0.0188699
0.0170668
0.0152672
0.0135089
0.0118281
0.010257
0.00882119
0.0075387
0.00641956
0.00546621
0.00467452
0.00403525
0.00353622
0.003164
0.00289716
0.00268868
0.00254237
0.00284886
0.0045124
0.0303202
0.0306485
0.0302611
0.0295033
0.0286243
0.0276283
0.0264756
0.0252063
0.0238133
0.0223049
0.0207024
0.019033
0.0173287
0.0156248
0.013958
0.0123635
0.0108724
0.00950973
0.00829289
0.00723162
0.00632821
0.00557853
0.0049735
0.00450113
0.00414838
0.00389517
0.00369595
0.00354819
0.00382597
0.00546758
0.029771
0.0299922
0.0296283
0.0289389
0.0281366
0.0272298
0.0261637
0.0249761
0.0236767
0.0222646
0.0207589
0.0191859
0.0175764
0.0159643
0.0143851
0.0128729
0.0114579
0.0101642
0.0090088
0.00800114
0.00714333
0.00643132
0.00585617
0.00540611
0.00506847
0.00482449
0.00463021
0.0044774
0.00472363
0.00633688
0.0292286
0.0293505
0.0290127
0.0283912
0.0276585
0.0268302
0.0258599
0.0247482
0.0235377
0.0222194
0.0208079
0.0193287
0.0178114
0.0162885
0.0147943
0.0133615
0.0120195
0.0107917
0.0096945
0.00873696
0.00792112
0.00724297
0.00669378
0.00626202
0.0059354
0.00569638
0.00550279
0.00534141
0.00555308
0.00712872
0.0286858
0.0287121
0.0284019
0.0278477
0.0271839
0.026429
0.0255528
0.0245195
0.0233931
0.0221668
0.0208481
0.0194612
0.0180346
0.0165995
0.0151886
0.0138337
0.0125628
0.0113986
0.0103571
0.00944685
0.00866989
0.00802223
0.00749538
0.00707807
0.00675843
0.00652009
0.00632282
0.00614922
0.00632306
0.00784847
0.0281352
0.0280675
0.0277877
0.0273006
0.0267054
0.0260221
0.0252333
0.0242871
0.0232392
0.0221039
0.0208779
0.019583
0.0182468
0.0168991
0.0155711
0.0142932
0.0130924
0.0119905
0.0110029
0.0101378
0.00939709
0.00877684
0.00826884
0.00786215
0.00754532
0.00730313
0.00709752
0.00690775
0.00704008
0.00849883
0.0275672
0.0274102
0.0271634
0.0267438
0.0262185
0.0256026
0.0248936
0.0240468
0.023074
0.0220282
0.0208957
0.0196934
0.0184483
0.0171886
0.015944
0.0147435
0.0136128
0.0125728
0.011638
0.0108164
0.0101095
0.00951375
0.00902108
0.00862098
0.00830247
0.00805149
0.00783235
0.00762199
0.00770861
0.00908009
0.026972
0.0267327
0.026522
0.0261693
0.0257138
0.0251675
0.024535
0.023789
0.0228957
0.0219375
0.0208995
0.0197915
0.0186391
0.0174692
0.0163098
0.015188
0.0141283
0.0131504
0.012268
0.0114886
0.0108136
0.0102393
0.00975823
0.00936029
0.00903507
0.00876967
0.00853109
0.00829503
0.0083311
0.00959043
0.0263393
0.0260279
0.0258569
0.0255716
0.0251863
0.0247114
0.024155
0.023506
0.0227024
0.0218287
0.0208872
0.0198761
0.0188191
0.0177419
0.0166703
0.0156298
0.0146431
0.0137285
0.0128987
0.0121605
0.0115153
0.0109594
0.0104858
0.0100849
0.00974714
0.00946082
0.0091959
0.00892816
0.00890801
0.0100262
0.0256569
0.0252879
0.0251611
0.0249447
0.0246313
0.0242315
0.0237505
0.0231905
0.0224911
0.0216985
0.0208561
0.0199457
0.018988
0.0180074
0.0170278
0.0160722
0.0151614
0.0143121
0.0135357
0.0128383
0.0122207
0.0116797
0.0112086
0.0107988
0.0104416
0.0101266
0.00982726
0.0095208
0.00943767
0.0103822
0.0249077
0.0245027
0.0244263
0.0242815
0.0240424
0.0237203
0.0233173
0.0228417
0.0222555
0.0215466
0.0208042
0.0199989
0.0191452
0.0182665
0.017384
0.0165184
0.0156878
0.0149067
0.014185
0.0135278
0.0129354
0.0124049
0.0119305
0.0115046
0.0111195
0.0107668
0.0104235
0.0100701
0.00991595
0.0106525
0.0240698
0.0236587
0.0236404
0.0235723
0.0234121
0.0231708
0.0228495
0.0224605
0.0219868
0.0213717
0.0207294
0.020034
0.0192901
0.0185196
0.017741
0.0169715
0.0162261
0.0155169
0.0148514
0.0142335
0.0136632
0.0131378
0.0126528
0.012202
0.0117792
0.0113782
0.01098
0.0105704
0.0103362
0.010831
0.0231228
0.0227507
0.0227972
0.0228093
0.022735
0.0225802
0.0223452
0.0220457
0.0216794
0.0211696
0.0206272
0.0200476
0.0194206
0.0187661
0.0180996
0.0174342
0.0167811
0.0161486
0.0155417
0.0149622
0.0144094
0.0138827
0.0133786
0.0128922
0.0124199
0.0119579
0.0114924
0.0110168
0.0106922
0.0109143
0.0220323
0.0218081
0.0219369
0.0220197
0.0220288
0.0219614
0.0218125
0.021599
0.0213297
0.0209355
0.0204892
0.0200298
0.0195282
0.0190012
0.0184605
0.017914
0.017367
0.0168226
0.0162815
0.0157425
0.0152039
0.0146694
0.0141359
0.0136002
0.0130622
0.0125222
0.0119731
0.0114174
0.0109844
0.0109022
0.0205895
0.0207731
0.021088
0.0212418
0.0213176
0.0213257
0.0212543
0.0211141
0.0209263
0.0206554
0.0203058
0.0199706
0.0196074
0.0192272
0.018836
0.0184336
0.0180167
0.0175802
0.0171183
0.0166263
0.016103
0.015548
0.0149676
0.0143613
0.0137338
0.0130911
0.0124342
0.0117739
0.0111972
0.0107802
0.018109
0.0189046
0.0197043
0.0201052
0.020334
0.0204753
0.0205311
0.0205107
0.0204427
0.0203245
0.0201147
0.0199276
0.0197222
0.0195014
0.0192637
0.019
0.018698
0.0183466
0.017935
0.0174605
0.0169408
0.0163075
0.0156428
0.0149381
0.0142011
0.0134435
0.0126732
0.0119047
0.0111783
0.0104737
0.0141993
0.014792
0.0162602
0.0173451
0.0181316
0.0187565
0.0192462
0.0196121
0.0198821
0.0200665
0.0201285
0.0201421
0.0200796
0.0199367
0.0197124
0.0194028
0.0190052
0.0185223
0.0179575
0.0173107
0.0165765
0.0158594
0.0151043
0.0143265
0.013546
0.0127755
0.0120248
0.0113084
0.0106364
0.00995354
-0.0405387
-0.0325954
-0.0265974
-0.0217268
-0.0177065
-0.0143596
-0.0115362
-0.0091269
-0.00704854
-0.00523791
-0.00364633
-0.00223584
-0.000976435
0.00015594
0.00118078
0.00211404
0.00296886
0.00375604
0.00448435
0.00516062
0.00578982
0.00637493
0.00691685
0.00741429
0.00786336
0.00825573
0.00858149
0.00883836
0.00902794
0.00907401
-0.0406898
-0.0326194
-0.0263267