/*--------------------------------*- C++ -*----------------------------------*\
  =========                 |
  \\      /  F ield         | OpenFOAM: The Open Source CFD Toolbox
   \\    /   O peration     | Website:  https://openfoam.org
    \\  /    A nd           | Version:  12
     \\/     M anipulation  |
\*---------------------------------------------------------------------------*/
FoamFile
{
    format      ascii;
    class       surfaceScalarField;
    location    "280";
    object      phi;
}
// * * * * * * * * * * * * * * * * * * * * * * * * * * * * * * * * * * * * * //

dimensions      [0 3 -1 0 0 0 0];

internalField   nonuniform List<scalar> 
13275
(
0.369023
-0.00462583
0.369481
-0.0114853
0.369794
-0.015406
0.369909
-0.0173603
-0.0180302
0.369849
0.351098
-0.00489892
0.351461
-0.0118473
0.351681
-0.0156268
0.351643
-0.0173215
-0.0176326
0.351245
0.334002
-0.00502182
0.334077
-0.0119231
0.333968
-0.0155177
0.333634
-0.0169874
-0.0170941
0.333096
0.317721
-0.00499239
0.317511
-0.0117123
0.317103
-0.0151099
0.316533
-0.0164173
-0.0164198
0.315858
0.302245
-0.00483561
0.30179
-0.0112572
0.301125
-0.0144448
0.300336
-0.0156285
-0.015583
0.299499
0.287534
-0.00457542
0.286872
-0.0105954
0.285978
-0.0135508
0.284977
-0.0146275
-0.014564
0.283958
0.273546
-0.00422913
0.272706
-0.00975551
0.271606
-0.0124508
0.270403
-0.0134239
-0.0133582
0.269197
0.260244
-0.00381046
0.259251
-0.00876337
0.25797
-0.0111695
0.256582
-0.0120355
-0.0119757
0.255199
0.247593
-0.00333252
0.246476
-0.007646
0.245043
-0.00973691
0.243497
-0.0104893
-0.0104389
0.24196
0.235564
-0.00280907
0.234352
-0.00643301
0.232802
-0.00818784
0.231133
-0.00882026
-0.00878031
0.229475
0.224129
-0.00225447
0.222852
-0.00515578
0.221225
-0.00656062
0.219472
-0.00706794
-0.00703799
0.21773
0.213259
-0.00168319
0.211949
-0.00384573
0.210283
-0.00489411
0.208488
-0.00527333
-0.00525229
0.206702
0.202927
-0.00110909
0.201614
-0.00253236
0.199945
-0.00322508
0.198147
-0.0034754
-0.003462
0.196357
0.193107
-0.000544736
0.191817
-0.00124214
0.190177
-0.00158581
0.18841
-0.00170843
-0.00170172
0.18665
0.183771
-1.12572e-07
0.18253
-2.37387e-07
0.180944
-2.83635e-07
0.179236
-2.85639e-07
-2.66795e-07
0.177534
0.183771
0.00054451
0.18253
0.00124166
0.180944
0.00158524
0.179236
0.00170786
0.00170118
0.177534
0.193107
0.00110886
0.191817
0.00253189
0.190177
0.00322452
0.18841
0.00347483
0.00346147
0.18665
0.202927
0.00168297
0.201614
0.00384526
0.199945
0.00489355
0.198147
0.00527276
0.00525176
0.196357
0.213259
0.00225425
0.211949
0.00515532
0.210283
0.00656006
0.208488
0.00706738
0.00703747
0.206702
0.224129
0.00280885
0.222852
0.00643255
0.221225
0.00818729
0.219472
0.00881971
0.00877979
0.21773
0.235564
0.00333231
0.234351
0.00764555
0.232802
0.00973637
0.231133
0.0104888
0.0104384
0.229475
0.247593
0.00381025
0.246476
0.00876293
0.245043
0.011169
0.243497
0.012035
0.0119752
0.24196
0.260244
0.00422892
0.259251
0.00975508
0.25797
0.0124502
0.256582
0.0134234
0.0133578
0.255199
0.273546
0.00457522
0.272706
0.010595
0.271606
0.0135503
0.270403
0.014627
0.0145635
0.269197
0.287534
0.00483542
0.286872
0.0112568
0.285978
0.0144443
0.284977
0.0156281
0.0155825
0.283958
0.302245
0.00499221
0.30179
0.0117119
0.301125
0.0151095
0.300336
0.0164168
0.0164194
0.299499
0.317721
0.00502164
0.317511
0.0119227
0.317103
0.0155173
0.316533
0.0169869
0.0170937
0.315858
0.334002
0.00489875
0.334077
0.011847
0.333968
0.0156264
0.333634
0.0173211
0.0176323
0.333096
0.351098
0.00462568
0.35146
0.0114849
0.351681
0.0154056
0.351642
0.0173599
0.0180299
0.351245
0.369023
0.369481
0.369794
0.369909
0.369849
0.197357
-0.0505301
-0.197397
0.196943
-0.0577704
0.195919
-0.0640414
0.194264
-0.0695585
0.192034
-0.0742863
0.189302
-0.0781594
0.186137
-0.0810869
0.182617
-0.0829457
0.178829
-0.0835917
0.174887
-0.0829756
0.170876
-0.0809012
0.166952
-0.0772308
0.163258
-0.0720477
0.15994
-0.0654428
0.157128
-0.0575941
0.154927
-0.0487574
0.153409
-0.0392445
0.152606
-0.0293933
0.152514
-0.0195395
0.153091
-0.00999124
0.154249
-0.000977006
0.15595
0.00728998
0.158083
0.0147219
0.160556
0.0212261
0.163282
0.0267833
0.166181
0.0314127
0.169182
0.0351605
0.172225
0.0380881
0.175249
0.0402659
0.0417593
0.178166
0.194725
-0.0506491
-0.194606
0.194061
-0.0571063
0.192707
-0.0626874
0.190763
-0.0676142
0.188306
-0.0718294
0.185409
-0.0752622
0.182138
-0.0778162
0.178563
-0.0793713
0.17477
-0.0797987
0.170856
-0.0790609
0.166899
-0.0769445
0.163048
-0.0733795
0.159434
-0.0684342
0.156189
-0.0621973
0.15343
-0.0548351
0.151254
-0.0465813
0.149727
-0.0377175
0.148881
-0.0285476
0.148713
-0.0193719
0.149185
-0.0104626
0.150252
-0.00204472
0.151826
0.00571641
0.153838
0.0127097
0.1562
0.0188644
0.158827
0.024156
0.161643
0.0285967
0.16458
0.0322232
0.167582
0.0350868
0.17059
0.0372572
0.0388672
0.173482
0.191408
-0.0503899
-0.191667
0.190441
-0.0561392
0.188873
-0.0611198
0.186784
-0.0655249
0.18424
-0.069285
0.181299
-0.0723218
0.17802
-0.0745374
0.174468
-0.0758183
0.170726
-0.0760568
0.166873
-0.0752083
0.162994
-0.0730651
0.159225
-0.0696106
0.155688
-0.0648972
0.152503
-0.0590128
0.149782
-0.0521135
0.147613
-0.044413
0.146062
-0.0361662
0.145161
-0.0276461
0.14491
-0.0191209
0.145281
-0.010834
0.146224
-0.00298791
0.147673
0.0042674
0.149556
0.0108271
0.151792
0.0166282
0.154302
0.0216458
0.157012
0.0258871
0.159854
0.0293809
0.162773
0.0321684
0.165715
0.0343144
0.0360212
0.168561
0.187981
-0.0497894
-0.188581
0.186757
-0.0549149
0.185007
-0.0593697
0.182791
-0.0633092
0.180166
-0.0666599
0.177184
-0.0693399
0.173899
-0.0712519
0.170368
-0.0722881
0.16668
-0.0723681
0.162891
-0.0714199
0.159094
-0.0692682
0.15541
-0.0659267
0.15195
-0.0614371
0.148824
-0.0558867
0.146133
-0.0494223
0.143961
-0.0422408
0.142368
-0.0345736
0.141389
-0.0266667
0.141028
-0.0187604
0.141266
-0.0110715
0.142059
-0.00378077
0.143351
0.00297514
0.145076
0.00910188
0.147162
0.0145425
0.149534
0.0192734
0.152123
0.0232989
0.154862
0.0266419
0.157695
0.0293349
0.160575
0.0314346
0.0332103
0.163386
0.184473
-0.0488971
-0.185365
0.183024
-0.0534656
0.181106
-0.0574517
0.178771
-0.0609747
0.17607
-0.0639585
0.173049
-0.0663188
0.169757
-0.0679608
0.166253
-0.0687837
0.162615
-0.0687302
0.15889
-0.0676944
0.155173
-0.0655518
0.151571
-0.0623244
0.148184
-0.05805
0.145112
-0.0528146
0.142447
-0.0467571
0.140266
-0.04006
0.138627
-0.0329345
0.137563
-0.0256032
0.137084
-0.0182816
0.137176
-0.0111636
0.137805
-0.00440983
0.138924
0.0018571
0.140472
0.00755303
0.142387
0.0126275
0.144601
0.0170593
0.147049
0.0208517
0.149667
0.0240235
0.152402
0.0266002
0.155207
0.0286297
0.0304383
0.157979
0.180853
-0.0477418
-0.182008
0.179199
-0.0518122
0.17713
-0.0553821
0.17469
-0.0585348
0.171922
-0.0611909
0.16887
-0.0632661
0.165578
-0.0646696
0.162104
-0.065309
0.158513
-0.0651394
0.154849
-0.0640311
0.151209
-0.0619111
0.147683
-0.0587983
0.144363
-0.0547305
0.141341
-0.0497924
0.1387
-0.0441159
0.136511
-0.0378707
0.134827
-0.0312509
0.133682
-0.0244586
0.133089
-0.0176879
0.133037
-0.0111121
0.133501
-0.00487401
0.134441
0.000917657
0.135805
0.00618859
0.137538
0.0108949
0.139578
0.0150188
0.141867
0.0185633
0.144345
0.0215451
0.146961
0.0239844
0.14967
0.025921
0.0277235
0.152385
0.1771
-0.046348
-0.178494
0.175264
-0.0499757
0.173061
-0.0531795
0.17053
-0.0560039
0.167708
-0.0583684
0.164632
-0.0601901
0.161345
-0.0613833
0.157903
-0.0618664
0.154356
-0.0615922
0.150753
-0.0604283
0.147183
-0.0583412
0.143728
-0.0553432
0.140471
-0.051474
0.137496
-0.0468172
0.134878
-0.0414983
0.132684
-0.035676
0.130962
-0.0295289
0.129744
-0.0232414
0.129045
-0.0169888
0.128859
-0.0109261
0.129166
-0.0051804
0.129931
0.00015268
0.131111
0.00500825
0.132657
0.0093489
0.134516
0.0131603
0.136632
0.0164466
0.138954
0.0192231
0.141432
0.0215067
0.144022
0.0233307
0.0250896
0.146656
0.173206
-0.044742
-0.174812
0.17121
-0.0479792
0.168892
-0.0508617
0.166284
-0.0533959
0.163417
-0.0555011
0.160324
-0.0570977
0.157046
-0.058105
0.153636
-0.058456
0.15013
-0.0580862
0.146586
-0.0568843
0.143082
-0.0548372
0.139693
-0.0519541
0.136495
-0.0482767
0.133565
-0.0438874
0.130973
-0.0389059
0.128778
-0.0334805
0.127025
-0.0277766
0.125746
-0.0219626
0.124955
-0.016197
0.124647
-0.010619
0.124808
-0.00534119
0.125409
-0.000447684
0.126411
0.0040055
0.127773
0.00798706
0.129447
0.0114863
0.131385
0.0145088
0.133539
0.0170692
0.135863
0.0191827
0.138316
0.0208781
0.0225601
0.140845
0.169165
-0.0429512
-0.170956
0.167032
-0.0458455
0.164616
-0.0484461
0.161943
-0.0507231
0.15904
-0.052598
0.155937
-0.053995
0.15267
-0.0548381
0.149289
-0.0550751
0.145824
-0.054621
0.142336
-0.0533965
0.138895
-0.0513954
0.135568
-0.0486274
0.132428
-0.0451363
0.129543
-0.0410028
0.126978
-0.0363411
0.124788
-0.0312903
0.123015
-0.0260034
0.121686
-0.0206343
0.120816
-0.015327
0.120404
-0.0102061
0.120434
-0.00537159
0.120883
-0.000897127
0.12172
0.00316928
0.122905
0.00680193
0.124397
0.0099936
0.126155
0.0127514
0.128134
0.0150899
0.130293
0.0170235
0.132593
0.0185781
0.0201558
0.134997
0.164973
-0.0410023
-0.166922
0.162724
-0.043596
0.160226
-0.0459482
0.1575
-0.0479971
0.154568
-0.0496667
0.15146
-0.0508863
0.148209
-0.051587
0.144855
-0.051722
0.141431
-0.0511965
0.137997
-0.0499621
0.134614
-0.0480127
0.131347
-0.0453608
0.128263
-0.0420516
0.125424
-0.0381643
0.122891
-0.0338077
0.120713
-0.0291121
0.118928
-0.024219
0.117563
-0.0192694
0.11663
-0.0143938
0.116128
-0.00970384
0.116045
-0.00528839
0.116359
-0.00121164
0.117043
0.00248547
0.118063
0.00578226
0.119382
0.00867462
0.120962
0.0111712
0.122765
0.0132866
0.124754
0.015035
0.126891
0.016441
0.0178937
0.129153
0.160626
-0.0389205
-0.162708
0.15828
-0.0412505
0.155715
-0.0433827
0.152946
-0.0452283
0.149994
-0.0467146
0.146884
-0.0477764
0.143651
-0.0483543
0.140325
-0.0483956
0.136942
-0.0478133
0.133559
-0.0465795
0.130234
-0.0446875
0.127026
-0.042153
0.123997
-0.0390228
0.121207
-0.035374
0.118709
-0.0313101
0.11655
-0.0269531
0.114765
-0.0224336
0.113376
-0.0178807
0.112395
-0.0134124
0.11182
-0.00912889
0.11164
-0.0051089
0.111837
-0.00140832
0.112384
0.00193815
0.113252
0.00491421
0.114409
0.00751845
0.115819
0.00976074
0.11745
0.011656
0.119266
0.0132183
0.121235
0.0144719
0.0157855
0.123344
0.156119
-0.0367293
-0.158311
0.153696
-0.038827
0.151076
-0.040763
0.148275
-0.0424266
0.145309
-0.043749
0.142202
-0.0446695
0.138988
-0.0451405
0.13569
-0.0450975
0.132349
-0.0444726
0.129018
-0.0432483
0.12575
-0.0414191
0.122601
-0.0390043
0.119629
-0.0360512
0.11689
-0.0326349
0.114434
-0.0288535
0.112301
-0.0248207
0.110525
-0.0206571
0.109124
-0.0164804
0.108109
-0.0123972
0.107478
-0.00849732
0.107219
-0.00485021
0.107315
-0.00150451
0.107743
0.00151056
0.108475
0.00418241
0.109481
0.00651188
0.110732
0.00850981
0.112197
0.0101912
0.113845
0.0115703
0.115645
0.0126715
0.013838
0.117593
0.151449
-0.0344501
-0.153729
0.148964
-0.0363417
0.146302
-0.0381011
0.143477
-0.0396009
0.140504
-0.040776
0.137406
-0.0415718
0.134213
-0.0419471
0.130945
-0.0418299
0.127648
-0.0411755
0.124369
-0.039969
0.121158
-0.0382085
0.11807
-0.0359159
0.115158
-0.0331392
0.112474
-0.0299508
0.110064
-0.0264433
0.107965
-0.0227226
0.106207
-0.0188992
0.104807
-0.0150803
0.103772
-0.0113621
0.103099
-0.00782445
0.102778
-0.00452878
0.102791
-0.00151719
0.103115
0.00118581
0.103727
0.00357079
0.104599
0.00564033
0.105702
0.00740594
0.107011
0.00888254
0.108497
0.0100845
0.110132
0.0110363
0.0120533
0.111917
0.14661
-0.0321024
-0.148958
0.144077
-0.033809
0.141385
-0.0354086
0.138544
-0.0367602
0.13557
-0.0378026
0.132488
-0.0384889
0.129316
-0.0387757
0.126083
-0.0385967
0.122832
-0.037924
0.119606
-0.0367436
0.116455
-0.0350576
0.11343
-0.0328905
0.110581
-0.0302902
0.107956
-0.0273263
0.105599
-0.0240857
0.103542
-0.0206663
0.101813
-0.0171693
0.100424
-0.0136917
0.0993817
-0.0103198
0.0986818
-0.00712462
0.0983131
-0.00416009
0.0982585
-0.00146259
0.0984969
0.000947484
0.0990044
0.00306324
0.0997561
0.0048886
0.100727
0.00643539
0.101891
0.00771826
0.103224
0.0087515
0.1047
0.00955994
0.0104294
0.106324
0.141592
-0.0297034
-0.143991
0.139026
-0.0312422
0.136314
-0.0326968
0.133467
-0.0339136
0.1305
-0.0348355
0.127436
-0.0354246
0.124291
-0.0356305
0.121097
-0.0354027
0.117894
-0.0347213
0.114725
-0.033575
0.111637
-0.0319697
0.108679
-0.0299318
0.105897
-0.0275086
0.103337
-0.0247666
0.101038
-0.0217869
0.0990317
-0.0186595
0.0973388
-0.0154765
0.0959722
-0.0123251
0.0949347
-0.00928233
0.0942212
-0.00641112
0.0938197
-0.00375855
0.093713
-0.00135591
0.0938806
0.000779899
0.0942997
0.00264408
0.0949468
0.00424147
0.0957983
0.0055839
0.0968311
0.00668552
0.0980222
0.00756043
0.0993487
0.00823336
0.0089609
0.100817
0.136386
-0.0272683
-0.138821
0.133799
-0.028655
0.131078
-0.0299765
0.128235
-0.0310699
0.125282
-0.0318832
0.122241
-0.0323832
0.119128
-0.0325173
0.115977
-0.0322526
0.112828
-0.0315718
0.10972
-0.0304676
0.1067
-0.0289491
0.103812
-0.0270443
0.101103
-0.0247995
0.0986143
-0.0222775
0.0963809
-0.0195535
0.0944312
-0.0167098
0.092784
-0.0138293
0.0914491
-0.0109902
0.0904275
-0.00826072
0.0897126
-0.00569614
0.0892914
-0.00333739
0.0891467
-0.00121124
0.0892582
0.00066841
0.0896039
0.0022984
0.0901612
0.00368415
0.090908
0.00483716
0.0918225
0.00577093
0.0928838
0.00649915
0.0940711
0.00704611
0.00764014
0.0953918
0.130977
-0.0248115
-0.133434
0.128383
-0.0260611
0.125666
-0.027259
0.122834
-0.0282377
0.119904
-0.0289532
0.116891
-0.0293701
0.113817
-0.0294435
0.110716
-0.0291522
0.107626
-0.028481
0.104585
-0.0274267
0.101637
-0.0260014
0.0988264
-0.0242339
0.0961958
-0.0221689
0.0937837
-0.0198654
0.0916226
-0.0173925
0.0897375
-0.0148246
0.0881443
-0.0122362
0.0868504
-0.00969631
0.0858548
-0.00726512
0.0851495
-0.0049908
0.0847207
-0.00290866
0.0845509
-0.00104143
0.0846198
0.000599519
0.0849059
0.0020123
0.0853875
0.00320257
0.0860433
0.00418131
0.0868531
0.00496112
0.0877972
0.00555512
0.0888565
0.00598679
0.00645764
0.090039
0.125351
-0.0223478
-0.127814
0.122763
-0.0234739
0.120059
-0.0245551
0.117249
-0.0254274
0.114349
-0.026053
0.111372
-0.0263929
0.108345
-0.0264171
0.105302
-0.0261085
0.102276
-0.0254556
0.0993086
-0.024459
0.0964403
-0.0231331
0.0937134
-0.021507
0.0911679
-0.0196234
0.0888396
-0.0175371
0.086758
-0.0153108
0.0849449
-0.0130115
0.0834137
-0.010705
0.0821694
-0.00845199
0.0812091
-0.00630485
0.0805235
-0.00430519
0.080098
-0.00248322
0.0799147
-0.000858099
0.0799533
0.000560963
0.0801926
0.00177302
0.0806114
0.0027837
0.0811895
0.00360323
0.0819074
0.00424319
0.0827466
0.00471592
0.0836897
0.00504373
0.00540304
0.0847443
0.119486
-0.0198927
-0.121942
0.116918
-0.0209059
0.114239
-0.021876
0.111462
-0.0226497
0.108599
-0.0231898
0.105668
-0.0234619
0.102697
-0.0234468
0.0997187
-0.0231299
0.096767
-0.0225039
0.0938805
-0.0215725
0.0910994
-0.0203521
0.0884636
-0.0188712
0.0860107
-0.0171704
0.0837735
-0.0152998
0.0817786
-0.013316
0.080045
-0.0112779
0.0785834
-0.00924344
0.0773967
-0.00726528
0.0764803
-0.00538842
0.0758235
-0.00364841
0.0754112
-0.00207083
0.0752247
-0.000671636
0.0752439
0.000541748
0.0754479
0.00156904
0.075816
0.00241562
0.0763284
0.0030908
0.0769666
0.00360501
0.0777129
0.00396962
0.0785512
0.00420546
0.00446571
0.0794885
0.113359
-0.0174623
-0.115789
0.110823
-0.0183699
0.10818
-0.0192338
0.105445
-0.0199149
0.10263
-0.0203745
0.0997567
-0.0205885
0.0968528
-0.0205429
0.0939491
-0.0202262
0.0910805
-0.0196352
0.0882844
-0.0187764
0.0855994
-0.0176671
0.0830633
-0.0163351
0.0807111
-0.0148182
0.0785729
-0.0131616
0.0766723
-0.0114154
0.0750257
-0.00963124
0.0736412
-0.00785899
0.0725197
-0.00614374
0.0716549
-0.00452365
0.0710352
-0.00302866
0.0706445
-0.00168012
0.070464
-0.000491208
0.0704736
0.000532172
0.0706525
0.00139016
0.0709804
0.00208771
0.0714381
0.00263309
0.0720076
0.00303548
0.0726721
0.00330516
0.0734164
0.00346116
0.00363525
0.0742468
0.106931
-0.0150729
-0.109321
0.104441
-0.0158794
0.10185
-0.0166425
0.0991692
-0.0172345
0.0964152
-0.0176205
0.0936118
-0.0177851
0.0907859
-0.017717
0.0879686
-0.0174089
0.0851942
-0.0168608
0.0824991
-0.0160814
0.0799204
-0.0150884
0.0774937
-0.0139084
0.0752513
-0.0125758
0.0732205
-0.0111308
0.0714222
-0.00961714
0.0698701
-0.00807906
0.0685699
-0.00655888
0.0675207
-0.00509447
0.0667147
-0.00371765
0.0661392
-0.00245321
0.0657778
-0.00131868
0.0656113
-0.000324769
0.0656197
0.000523848
0.0657823
0.00122755
0.0660792
0.00179073
0.0664918
0.00222052
0.0670025
0.00252481
0.067595
0.00271263
0.0682552
0.00280101
0.00290206
0.0689884
0.100158
-0.0127421
-0.102489
0.0977304
-0.0134515
0.095205
-0.0141171
0.0925934
-0.0146229
0.0899159
-0.0149429
0.0871964
-0.0150655
0.0844623
-0.0149829
0.0817447
-0.0146913
0.0790774
-0.0141935
0.0764958
-0.0134998
0.0740351
-0.0126277
0.0717287
-0.011602
0.0696062
-0.0104533
0.0676922
-0.0092168
0.0660047
-0.00792965
0.0645547
-0.0066291
0.0633461
-0.00535025
0.0623758
-0.00412422
0.0616351
-0.00297694
0.0611104
-0.00192849
0.0607847
-0.00099301
0.060639
-0.000179051
0.0606531
0.000509741
0.0608068
0.00107382
0.0610807
0.00151693
0.0614562
0.00184501
0.0619163
0.00206463
0.0624455
0.00218352
0.06303
0.00221651
0.00225765
0.0636744
0.0929791
-0.0104899
-0.0952312
0.0906321
-0.0111045
0.0881887
-0.0116738
0.0856643
-0.0120985
0.0830805
-0.012359
0.0804615
-0.0124466
0.0778355
-0.0123569
0.0752334
-0.0120893
0.0726887
-0.0116488
0.0702351
-0.0110462
0.0679061
-0.0102987
0.0657326
-0.00942845
0.0637416
-0.00846226
0.0619546
-0.00742983
0.060387
-0.00636209
0.0590474
-0.00528949
0.0579375
-0.00424032
0.0570527
-0.00323945
0.0563832
-0.00230743
0.0559148
-0.00146011
0.0556304
-0.000708566
0.0555108
-5.95026e-05
0.0555363
0.000484264
0.055687
0.000923156
0.0559437
0.00126019
0.0562886
0.00150016
0.0567049
0.0016483
0.0571774
0.00171099
0.0576932
0.00170078
0.00169508
0.0582557
0.0853091
-0.00833914
-0.0874598
0.0830633
-0.00885872
0.0807235
-0.00933394
0.0783075
-0.00968257
0.0758376
-0.00988917
0.0733394
-0.00994832
0.0708412
-0.00985869
0.068374
-0.00962215
0.0659703
-0.00924501
0.0636624
-0.00873835
0.0614815
-0.00811779
0.0594559
-0.00740284
0.0576097
-0.00661604
0.0559616
-0.00578172
0.0545242
-0.0049247
0.0533037
-0.00406897
0.0522998
-0.00323651
0.0515069
-0.00244648
0.050914
-0.00171456
0.0505067
-0.0010528
0.0502678
-0.000469636
0.0501784
2.98325e-05
0.0502192
0.000443446
0.0503709
0.000771512
0.0506147
0.00101633
0.0509334
0.00118155
0.0513105
0.00127118
0.0517312
0.00129024
0.0521831
0.00124893
0.00120935
0.0526688
0.0770267
-0.00631555
-0.0790503
0.0749082
-0.00674022
0.0726985
-0.00712421
0.0704166
-0.00740068
0.0680862
-0.00755879
0.0657339
-0.00759599
0.0633884
-0.00751325
0.0610804
-0.00731412
0.058841
-0.00700555
0.0567006
-0.00659801
0.054688
-0.00610519
0.0528286
-0.00554342
0.0511434
-0.00493084
0.0496482
-0.00428648
0.0483528
-0.00362932
0.0472612
-0.00297733
0.0463714
-0.00234676
0.0456765
-0.00175159
0.0451652
-0.00120322
0.0448228
-0.000710379
0.0446323
-0.000279208
0.0445756
8.65469e-05
0.0446338
0.000385238
0.0447883
0.000617007
0.0450212
0.00078346
0.0453155
0.000887204
0.0456556
0.0009311
0.0460269
0.000918919
0.0464173
0.000858523
0.000797911
0.0468288
0.0679532
-0.00445242
-0.0698164
0.0659959
-0.00478289
0.0639494
-0.00507769
0.0618348
-0.0052861
0.0596773
-0.00540133
0.0575043
-0.00542298
0.0553445
-0.00535347
0.0532276
-0.00519715
0.0511828
-0.00496082
0.0492385
-0.00465367
0.0474203
-0.00428697
0.0457504
-0.00387354
0.0442466
-0.00342706
0.0429216
-0.00296148
0.0417826
-0.0024903
0.0408313
-0.00202606
0.0400644
-0.00157988
0.0394741
-0.00116126
0.0390488
-0.000777864
0.038774
-0.000435607
0.0386335
-0.000138681
0.0386097
0.000110279
0.0386849
0.000310022
0.0388414
0.000460506
0.0390622
0.0005627
0.0393311
0.000618284
0.0396331
0.000629142
0.0399541
0.000597917
0.0402823
0.000530269
0.000461193
0.0406191
0.0578095
-0.00279375
-0.0594681
0.056058
-0.00303144
0.0542206
-0.00324032
0.0523203
-0.00338577
0.0503832
-0.00346424
0.0484368
-0.00347655
0.046509
-0.00342564
0.0446276
-0.00331582
0.0428198
-0.00315296
0.0411105
-0.00294439
0.0395221
-0.00269855
0.0380731
-0.00242457
0.0367778
-0.0021318
0.0356458
-0.00182941
0.0346815
-0.001526
0.0338848
-0.00122937
0.0332512
-0.000946276
0.0327723
-0.000682426
0.0324369
-0.000442431
0.0322312
-0.000229866
0.0321398
-4.73326e-05
0.0321467
0.000103428
0.0322352
0.000221491
0.0323891
0.000306636
0.0325925
0.00035928
0.0328305
0.000380318
0.0330888
0.000370831
0.0333542
0.000332518
0.0336154
0.000269046
0.000203474
0.0338731
0.0461317
-0.00140444
-0.047521
0.0446541
-0.00155379
0.0430966
-0.00168286
0.041483
-0.00177217
0.0398391
-0.00182036
0.0381912
-0.0018286
0.0365651
-0.00179952
0.0349859
-0.00173662
0.0334771
-0.00164422
0.0320601
-0.00152731
0.0307528
-0.00139124
0.0295697
-0.0012415
0.0285213
-0.00108339
0.0276138
-0.0009219
0.0268493
-0.000761502
0.026226
-0.000606104
0.0257387
-0.000459022
0.0253793
-0.00032301
0.0251372
-0.000200309
0.0250001
-9.2708e-05
0.0249543
-1.53777e-06
0.0249855
7.22124e-05
0.0250791
0.00012786
0.0252207
0.000165085
0.025396
0.000183905
0.0255918
0.000184593
0.025795
0.000167596
0.0259937
0.000133849
0.0261774
8.53285e-05
3.44144e-05
0.0263464
0.0320923
-0.000398917
-0.0330978
0.0310083
-0.000469863
0.0298552
-0.00052973
0.0286538
-0.000570752
0.0274269
-0.000593419
0.0261973
-0.000599082
0.0249875
-0.000589661
0.0238181
-0.000567267
0.022708
-0.000534152
0.0216734
-0.000492638
0.0207271
-0.000445008
0.0198791
-0.00039341
0.0191355
-0.000339785
0.0184994
-0.000285823
0.0179708
-0.000232953
0.0175471
-0.000182357
0.0172231
-0.000134996
0.0169917
-9.16619e-05
0.0168444
-5.30144e-05
0.0167714
-1.97181e-05
0.0167623
7.58827e-06
0.0168048
2.97376e-05
0.0168876
4.50072e-05
0.0169991
5.35762e-05
0.0171278
5.52787e-05
0.0172624
4.99793e-05
0.0173924
3.7559e-05
0.0175083
1.80044e-05
0.0176019
-8.3362e-06
-3.52838e-05
0.0176716
0.014156
-0.0145549
0.0136861
0.0131564
0.0125856
0.0119922
0.0113931
0.0108034
0.0102362
0.00970203
0.00920939
0.00876438
0.00837097
0.00803119
0.00774536
0.00751241
0.00733005
0.00719506
0.0071034
0.00705038
0.00703066
0.00703825
0.00706799
0.007113
0.00716657
0.00722185
0.00727183
0.00730939
0.00732739
0.00731906
0.00728377
0.351225
-0.178773
0.333837
-0.177218
0.317076
-0.174907
0.300819
-0.172324
0.28496
-0.169506
0.269412
-0.16646
0.254122
-0.163204
0.239057
-0.159748
0.224202
-0.156101
0.209551
-0.152271
0.195105
-0.148262
0.180874
-0.14408
0.166872
-0.139726
0.153116
-0.135202
0.139629
-0.130504
0.126435
-0.125627
0.113563
-0.120562
0.101044
-0.115295
0.0889118
-0.109809
0.0772043
-0.104081
0.0659634
-0.09808
0.0552377
-0.0917634
0.045083
-0.0850765
0.0355656
-0.0779425
0.0267681
-0.0702528
0.018798
-0.0618462
0.011805
-0.0524752
0.0060177
-0.0417337
0.00183769
-0.0289178
-0.0127172
0.334628
-0.162156
0.318167
-0.160757
0.302124
-0.158864
0.286431
-0.156631
0.27103
-0.154104
0.255887
-0.151317
0.240982
-0.148299
0.226303
-0.145069
0.211848
-0.141645
0.197618
-0.138041
0.183624
-0.134268
0.169877
-0.130333
0.156393
-0.126243
0.143191
-0.122
0.130292
-0.117605
0.117719
-0.113053
0.105496
-0.108339
0.0936504
-0.10345
0.0822129
-0.098372
0.0712161
-0.0930846
0.0606968
-0.0875606
0.050697
-0.0817636
0.0412657
-0.0756452
0.0324617
-0.0691385
0.0243582
-0.0621493
0.0170516
-0.0545397
0.010677
-0.0461005
0.00543846
-0.0364952
0.00167963
-0.025159
-0.0110375
0.317358
-0.146419
0.301796
-0.145194
0.28649
-0.143558
0.271431
-0.141573
0.256605
-0.139278
0.242002
-0.136715
0.227619
-0.133915
0.213457
-0.130907
0.199521
-0.12771
0.185823
-0.124343
0.172374
-0.120819
0.159192
-0.11715
0.146292
-0.113343
0.133694
-0.109402
0.121418
-0.105328
0.109484
-0.10112
0.0979165
-0.0967709
0.0867392
-0.0922726
0.075979
-0.0876118
0.0656654
-0.082771
0.0558311
-0.0777264
0.0465138
-0.0724463
0.0377572
-0.0668886
0.029614
-0.0609953
0.0221503
-0.0546856
0.0154532
-0.0478426
0.00964384
-0.0402911
0.00490314
-0.0317545
0.00152384
-0.0217797
-0.00951371
0.300886
-0.131446
0.286051
-0.130359
0.271388
-0.128895
0.256907
-0.127092
0.242617
-0.124988
0.228526
-0.122625
0.214647
-0.120036
0.200989
-0.117249
0.187568
-0.114289
0.174398
-0.111173
0.161495
-0.107917
0.148877
-0.104532
0.13656
-0.101026
0.124562
-0.0974044
0.112902
-0.0936686
0.1016
-0.0898171
0.0906744
-0.0858458
0.0801487
-0.0817468
0.070046
-0.0775092
0.0603925
-0.0731175
0.0512173
-0.0685511
0.0425537
-0.0637827
0.0344409
-0.0587758
0.0269263
-0.0534807
0.0200694
-0.0478287
0.0139481
-0.0417214
0.00867051
-0.0350135
0.00439473
-0.0274787
0.00136773
-0.0187527
-0.00814598
0.285161
-0.117108
0.270923
-0.116121
0.256815
-0.114787
0.242859
-0.113135
0.229076
-0.111205
0.215486
-0.109035
0.202108
-0.106658
0.188961
-0.104102
0.176061
-0.101389
0.163427
-0.0985387
0.151076
-0.0955652
0.139023
-0.0924796
0.127287
-0.08929
0.115884
-0.086001
0.10483
-0.0826148
0.0941433
-0.0791304
0.0838418
-0.0755443
0.0739449
-0.0718499
0.0644734
-0.0680378
0.0554505
-0.0640946
0.046902
-0.0600026
0.0388576
-0.0557383
0.0313523
-0.0512705
0.0244286
-0.046557
0.0181398
-0.0415398
0.0125554
-0.036137
0.00777061
-0.0302287
0.00392227
-0.0236304
0.00121781
-0.0160482
-0.00692817
0.270158
-0.103308
0.256441
-0.102404
0.242837
-0.101183
0.229377
-0.0996746
0.216087
-0.0979154
0.202994
-0.0959415
0.19012
-0.0937837
0.177486
-0.0914678
0.165112
-0.089015
0.153016
-0.0864425
0.141214
-0.0837639
0.129724
-0.0809896
0.118561
-0.0781267
0.10774
-0.0751798
0.0972756
-0.0721508
0.0871844
-0.0690392
0.077482
-0.0658419
0.0681856
-0.0625535
0.0593137
-0.0591658
0.0508866
-0.0556675
0.0429274
-0.0520434
0.0354625
-0.0482734
0.0285232
-0.0443313
0.0221476
-0.0401813
0.016383
-0.0357752
0.0112911
-0.0310451
0.00695528
-0.0258929
0.00349314
-0.0201682
0.00107906
-0.0136341
-0.00584911
0.255881
-0.0899917
0.242644
-0.0891672
0.229519
-0.0880587
0.21654
-0.0866958
0.203738
-0.0851132
0.19114
-0.0833434
0.178771
-0.0814142
0.166651
-0.0793487
0.154802
-0.0771659
0.143241
-0.0748813
0.131984
-0.0725069
0.121046
-0.0700518
0.110442
-0.0675224
0.100185
-0.0649228
0.0902891
-0.0622547
0.0807677
-0.0595177
0.0716351
-0.0567094
0.0629066
-0.053825
0.0545984
-0.0508576
0.0467286
-0.0477977
0.0393176
-0.0446324
0.0323891
-0.041345
0.025971
-0.0379132
0.0200972
-0.0343075
0.0148098
-0.0304879
0.0101632
-0.0263986
0.00623011
-0.0219597
0.00311155
-0.0170497
0.00095469
-0.0114773
-0.00489442
0.242341
-0.0771339
0.229567
-0.0763932
0.216912
-0.0754036
0.204411
-0.0741943
0.192094
-0.072797
0.179991
-0.0712403
0.168126
-0.0695486
0.156519
-0.0677421
0.145191
-0.0658372
0.134156
-0.0638473
0.123432
-0.0617826
0.113032
-0.0596511
0.102967
-0.0574582
0.0932521
-0.0552075
0.0838976
-0.0529003
0.0749162
-0.0505363
0.0663204
-0.0481136
0.0581236
-0.0456282
0.0503403
-0.0430743
0.0429865
-0.0404439
0.0360804
-0.0377263
0.0296431
-0.0349076
0.0236995
-0.0319696
0.0182797
-0.0288877
0.0134213
-0.0256295
0.00917218
-0.0221494
0.00559553
-0.0183831
0.00277852
-0.0142327
0.00084603
-0.00954477
-0.00404839
0.229554
-0.0647274
0.217239
-0.0640781
0.205051
-0.0632164
0.193027
-0.06217
0.181197
-0.0609667
0.169588
-0.0596311
0.158223
-0.058184
0.147123
-0.0566424
0.136306
-0.05502
0.125787
-0.0533281
0.11558
-0.0515753
0.105697
-0.0497682
0.0961496
-0.0479112
0.0869495
-0.0460073
0.078107
-0.0440577
0.0696328
-0.0420622
0.0615382
-0.040019
0.053835
-0.037925
0.046536
-0.0357753
0.0396556
-0.0335635
0.03321
-0.0312807
0.0272181
-0.0289157
0.021702
-0.0264535
0.0166889
-0.0238746
0.0122118
-0.0211524
0.00831315
-0.0182508
0.00504826
-0.0151182
0.00249261
-0.011677
0.0007531
-0.00780525
-0.00329529
0.217522
-0.0527745
0.205669
-0.0522248
0.193952
-0.0514997
0.182406
-0.0506241
0.171061
-0.0496217
0.159943
-0.0485128
0.149073
-0.0473143
0.138471
-0.0460402
0.128153
-0.0447017
0.118132
-0.0433079
0.108423
-0.0418656
0.0990347
-0.0403803
0.089979
-0.0388555
0.0812653
-0.0372936
0.0729031
-0.0356955
0.0649021
-0.0340611
0.057272
-0.032389
0.0500236
-0.0306765
0.0431682
-0.0289199
0.0367187
-0.027114
0.0306898
-0.0252517
0.0250982
-0.0233241
0.0199641
-0.0213194
0.0153115
-0.0192219
0.0111701
-0.017011
0.00757747
-0.0146582
0.00458237
-0.0121231
0.00225073
-0.00934539
0.000675056
-0.00622958
-0.00262023
0.206237
-0.0412814
0.19485
-0.0408381
0.183607
-0.0402562
0.17254
-0.039557
0.161677
-0.0387595
0.151044
-0.0378796
0.140661
-0.0369307
0.130544
-0.0359235
0.120709
-0.034867
0.111169
-0.033768
0.101936
-0.032632
0.0930182
-0.031463
0.0844266
-0.0302639
0.0761695
-0.0290365
0.0682555
-0.0277815
0.0606931
-0.0264987
0.0534912
-0.0251871
0.0466593
-0.0238447
0.0402079
-0.0224685
0.0341484
-0.0210545
0.0284941
-0.0195974
0.0232601
-0.0180902
0.0184647
-0.016524
0.0141296
-0.0148868
0.0102814
-0.0131629
0.00695381
-0.0113306
0.00419014
-0.00935943
0.00204865
-0.00720389
0.000610534
-0.00479147
-0.0020097
0.195675
-0.0302546
0.184759
-0.029922
0.17399
-0.0294873
0.1634
-0.0289669
0.153016
-0.0283749
0.142859
-0.0277232
0.13295
-0.0270215
0.123304
-0.0262777
0.113936
-0.0254983
0.104856
-0.0246882
0.0960755
-0.0238514
0.0876035
-0.022991
0.0794484
-0.0221088
0.0716182
-0.0212063
0.0641207
-0.0202839
0.0569635
-0.0193415
0.0501549
-0.0183784
0.0437033
-0.0173931
0.0376183
-0.0163835
0.0319104
-0.0153465
0.0265915
-0.0142785
0.0216757
-0.0131744
0.0171793
-0.0120277
0.0131223
-0.0108298
0.00952888
-0.00956941
0.00642938
-0.00823105
0.0038629
-0.00679295
0.00188159
-0.00522259
0.00055791
-0.00346779
-0.00145179
0.185801
-0.0196986
0.175357
-0.0194785
0.165061
-0.0191916
0.154944
-0.0188492
0.145029
-0.0184605
0.135339
-0.0180331
0.125891
-0.0175735
0.1167
-0.0170868
0.107779
-0.016577
0.0991382
-0.0160476
0.0907877
-0.015501
0.0827359
-0.0149391
0.0749903
-0.0143633
0.0675584
-0.0137744
0.0604472
-0.0131727
0.0536639
-0.0125582
0.0472158
-0.0119303
0.0411109
-0.0112882
0.0353578
-0.0106304
0.0299663
-0.00995503
0.0249474
-0.00925964
0.020314
-0.00854099
0.0160812
-0.00779489
0.0122673
-0.00701587
0.00889458
-0.00619665
0.0059908
-0.00532727
0.00359168
-0.00439383
0.00174462
-0.00337553
0.000515484
-0.00223865
-0.000936304
0.176566
-0.00961457
0.166594
-0.00950607
0.156767
-0.00936497
0.147115
-0.00919684
0.137661
-0.0090062
0.128424