/*--------------------------------*- C++ -*----------------------------------*\
  =========                 |
  \\      /  F ield         | OpenFOAM: The Open Source CFD Toolbox
   \\    /   O peration     | Website:  https://openfoam.org
    \\  /    A nd           | Version:  12
     \\/     M anipulation  |
\*---------------------------------------------------------------------------*/
FoamFile
{
    format      ascii;
    class       volScalarField;
    location    "280";
    object      pMean;
}
// * * * * * * * * * * * * * * * * * * * * * * * * * * * * * * * * * * * * * //

dimensions      [0 2 -2 0 0 0 0];

internalField   nonuniform List<scalar> 
6750
(
0.00930345
0.00927666
0.0092323
0.00905577
0.00808
0.0109801
0.0109518
0.0108349
0.0105797
0.010239
0.0129092
0.0128592
0.0127393
0.0125512
0.0124108
0.0149105
0.0148257
0.0147119
0.014581
0.0145152
0.0168871
0.0167585
0.0166353
0.0165327
0.0165052
0.0187595
0.0185827
0.0184394
0.018348
0.0183391
0.0204789
0.0202527
0.0200857
0.0199988
0.0200001
0.022016
0.021741
0.0215504
0.0214661
0.0214744
0.0233522
0.023031
0.0228188
0.0227369
0.0227507
0.0244774
0.024114
0.0238831
0.0238042
0.0238223
0.0253887
0.0249884
0.0247427
0.024667
0.0246884
0.0260898
0.0256589
0.0254026
0.0253303
0.025354
0.026591
0.0261355
0.0258735
0.0258044
0.0258293
0.0269071
0.0264329
0.0261713
0.0261039
0.0261286
0.0270523
0.0265723
0.0263161
0.0262466
0.0262695
0.0270524
0.0265725
0.0263163
0.0262467
0.0262696
0.0269075
0.0264333
0.0261717
0.0261043
0.026129
0.0265916
0.0261362
0.0258742
0.0258051
0.02583
0.0260907
0.0256598
0.0254035
0.0253313
0.025355
0.0253898
0.0249895
0.0247439
0.0246682
0.0246896
0.0244788
0.0241154
0.0238845
0.0238056
0.0238237
0.0233538
0.0230326
0.0228204
0.0227385
0.0227523
0.0220178
0.0217428
0.0215523
0.021468
0.0214763
0.0204809
0.0202546
0.0200877
0.0200009
0.0200022
0.0187616
0.0185848
0.0184416
0.0183502
0.0183414
0.0168893
0.0167608
0.0166376
0.016535
0.0165076
0.0149128
0.0148281
0.0147143
0.0145834
0.0145176
0.0129116
0.0128616
0.0127417
0.0125536
0.0124132
0.0109825
0.0109542
0.0108373
0.0105822
0.0102413
0.00930585
0.00927908
0.00923473
0.00905819
0.00808235
0.00225475
0.0027904
0.00415044
0.00514617
0.00586156
0.00642895
0.00687587
0.00721734
0.00748027
0.00767142
0.00777358
0.00784649
0.00786821
0.00783622
0.00774868
0.00760075
0.00738764
0.00710888
0.00676418
0.00635152
0.00586798
0.00540055
0.00489789
0.00437423
0.00384705
0.00332715
0.00282301
0.00235167
0.00192336
0.00142509
0.00599993
0.00672432
0.00746015
0.00781836
0.00801758
0.00813971
0.0081882
0.00817499
0.00812516
0.00803094
0.00787943
0.00775797
0.00763608
0.00751759
0.00740079
0.00727626
0.00713071
0.00695143
0.00672609
0.00644929
0.00613203
0.00571208
0.00526559
0.00478081
0.00426461
0.00372708
0.00317535
0.00262592
0.00212531
0.00162706
0.00844528
0.00860794
0.00889939
0.00903411
0.00909736
0.00910127
0.0090357
0.0089125
0.00874797
0.00850897
0.00821949
0.00794577
0.00765836
0.00736846
0.00708195
0.00679875
0.00651529
0.00622573
0.00592337
0.00560209
0.00525859
0.00489354
0.004507
0.0040985
0.00367142
0.0032302
0.00277473
0.00231537
0.00193453
0.0016737
0.00992294
0.00971408
0.00983813
0.00991181
0.00991745
0.00985437
0.00971854
0.00952512
0.00927843
0.00892347
0.00853217
0.00812837
0.00769436
0.00724658
0.0067969
0.00635358
0.00592234
0.00550598
0.00510494
0.00471714
0.00433986
0.00397571
0.00361846
0.00326414
0.00291112
0.00255818
0.00219784
0.00183217
0.00157549
0.00159543
0.0110725
0.0107331
0.0107845
0.0107954
0.0107259
0.0105826
0.0103662
0.0100894
0.00974545
0.00927925
0.00878513
0.00825568
0.00768829
0.00710249
0.00651424
0.00593752
0.00538413
0.00486268
0.00437824
0.00393217
0.00352311
0.00314898
0.0028048
0.00248432
0.00218222
0.00189326
0.00160395
0.00130821
0.00114664
0.0014275
0.0120921
0.0117216
0.0117152
0.0116532
0.0115045
0.0112802
0.0109814
0.0106166
0.010166
0.00959518
0.00899451
0.00834352
0.00765094
0.00693859
0.00622582
0.00553093
0.00487007
0.00425577
0.00369621
0.003195
0.00275163
0.00236256
0.00202201
0.00172223
0.00145567
0.00121438
0.000980022
0.000740171
0.000657025
0.0011736
0.013014
0.0126523
0.0125926
0.0124599
0.0122373
0.0119359
0.0115576
0.011106
0.0105447
0.00987731
0.00917002
0.00840254
0.00759135
0.00676016
0.0059314
0.0051269
0.00436623
0.00366492
0.00303355
0.00247734
0.00199651
0.00158728
0.00124282
0.000954176
0.000712234
0.000507003
0.000316043
0.000122492
0.000108129
0.000833871
0.0138573
0.013529
0.0134222
0.0132225
0.0129294
0.0125529
0.0120971
0.0115583
0.0108869
0.0101296
0.00931598
0.0084363
0.00751195
0.0065682
0.00563018
0.00472265
0.00386792
0.00308397
0.00238323
0.00177219
0.00125172
0.00081795
0.000463348
0.000178043
-4.82355e-05
-0.000227277
-0.000384766
-0.000540791
-0.000494771
0.0004117
0.0146423
0.0143644
0.0142152
0.0139502
0.0135878
0.0131377
0.0126046
0.0119743
0.0112005
0.0103539
0.00943496
0.00844679
0.00741374
0.00636249
0.00532058
0.00431525
0.00337109
0.002508
0.00173991
0.00107434
0.000512645
5.09058e-05
-0.000318861
-0.000607246
-0.000825394
-0.000986557
-0.00111935
-0.00124543
-0.00114637
-8.78951e-05
0.0153845
0.0151678
0.0149792
0.0146495
0.0142183
0.0136966
0.0130849
0.0123567
0.0114908
0.0105519
0.00952945
0.00843597
0.00729762
0.00614268
0.00500088
0.00390161
0.00287134
0.00193158
0.0010975
0.000377408
-0.000226952
-0.000719507
-0.00110859
-0.00140534
-0.00162168
-0.00177193
-0.00188764
-0.00199042
-0.00184425
-0.000660143
0.0160953
0.0159468
0.0157212
0.0153263
0.0148258
0.014233
0.0135417
0.0127123
0.0117611
0.0107271
0.00960242
0.00840568
0.00716432
0.00590829
0.00466931
0.00347862
0.00236435
0.00134938
0.000449892
-0.000325147
-0.000973676
-0.00149963
-0.00191162
-0.00222124
-0.00244097
-0.00258626
-0.00269128
-0.00277637
-0.00258794
-0.00130136
0.0167841
0.0167086
0.0164477
0.0159868
0.0154161
0.0147523
0.0139773
0.0130486
0.0120139
0.0108827
0.00965638
0.00835741
0.00701429
0.00565863
0.00432397
0.00304322
0.00184596
0.000756263
-0.000208817
-0.00103973
-0.00173416
-0.00229604
-0.00273423
-0.00306067
-0.00328834
-0.00343382
-0.00353353
-0.0036058
-0.00337921
-0.00200943
0.0174599
0.0174604
0.0171661
0.0166382
0.0159973
0.0152586
0.0143929
0.0133736
0.0122515
0.0110214
0.00969346
0.00829235
0.0068477
0.00539278
0.00396281
0.00259223
0.00131193
0.000147053
-0.000884557
-0.00177285
-0.00251525
-0.00311572
-0.00358331
-0.00393027
-0.00417
-0.00432019
-0.00441947
-0.00448322
-0.00422182
-0.0027842
0.0181317
0.0182093
0.0178832
0.0172872
0.0165749
0.0157585
0.0147961
0.0136917
0.0124768
0.0111461
0.00971568
0.00821148
0.00666448
0.00510957
0.00358354
0.00212226
0.000757843
-0.000483604
-0.00158349
-0.00253129
-0.00332423
-0.00396624
-0.00446654
-0.00483768
-0.00509339
-0.00525255
-0.00535588
-0.00541495
-0.00512155
-0.00362777
0.0188065
0.0189651
0.0186082
0.0179425
0.0171563
0.0162564
0.0151959
0.0140063
0.0126936
0.01126
0.00972493
0.0081156
0.0064643
0.00480753
0.00318356
0.0016296
0.000178921
-0.00114145
-0.00231222
-0.0033224
-0.004169
-0.00485592
-0.00539253
-0.0057916
-0.00606725
-0.00623955
-0.00635122
-0.00640923
-0.00608626
-0.00454478
0.0194918
0.0197391
0.0193531
0.0186158
0.0177486
0.016755
0.0156023
0.0143211
0.0129058
0.0113659
0.00972295
0.00800525
0.00624653
0.00448481
0.00275983
0.00111005
-0.000430143
-0.00183281
-0.003078
-0.00415425
-0.00505833
-0.00579412
-0.00637108
-0.00680214
-0.00710188
-0.00729161
-0.00741591
-0.00747647
-0.00712617
-0.00554265
0.0201978
0.0205444
0.0201301
0.0193168
0.0183612
0.0172647
0.0160222
0.0146408
0.0131176
0.0114668
0.00971139
0.00788075
0.00601014
0.00413909
0.00230871
0.000558717
-0.00107542
-0.00256488
-0.00388904
-0.00503599
-0.00600222
-0.00679153
-0.00741351
-0.00788121
-0.00820951
-0.00842126
-0.00856278
-0.0086296
-0.00825409
-0.00663204
0.0209418
0.0213945
0.0209533
0.0200541
0.0189995
0.0178004
0.0164615
0.0149712
0.0133337
0.0115659
0.00969179
0.00774211
0.00575364
0.00376737
0.00182576
-3.0209e-05
-0.00176404
-0.00334604
-0.00475489
-0.00597822
-0.00701223
-0.00786064
-0.00853308
-0.00904272
-0.00940478
-0.00964364
-0.00980741
-0.00988466
-0.00948618
-0.00782742
0.0217459
0.0223017
0.0218353
0.0208429
0.0196753
0.0183739
0.0169267
0.0153188
0.0135591
0.0116663
0.00966552
0.00758893
0.00547485
0.00336574
0.00130545
-0.00066386
-0.00250464
-0.00418631
-0.0056869
-0.00699354
-0.00810213
-0.00901628
-0.00974563
-0.0103035
-0.0107054
-0.0109773
-0.0111689
-0.0112613
-0.0108422
-0.00914771
0.0226298
0.023288
0.0227954
0.0216974
0.0204073
0.0189959
0.017428
0.015692
0.0137998
0.0117716
0.00963379
0.00742018
0.00517062
0.00292905
0.000740667
-0.00135117
-0.00330787
-0.00509801
-0.00669894
-0.00809728
-0.00928864
-0.0102765
-0.0110705
-0.0116839
-0.0121327
-0.0124446
-0.0126708
-0.0127841
-0.0123476
-0.0106176
0.0236219
0.0243849
0.0238565
0.0226345
0.0212191
0.0196814
0.0179781
0.0161005
0.0140624
0.0118853
0.00959739
0.00723393
0.00483642
0.00245029
0.000122086
-0.00210365
-0.00418731
-0.00609666
-0.00780836
-0.00930858
-0.0105926
-0.0116637
-0.0125315
-0.0132094
-0.0137137
-0.0140739
-0.0143431
-0.0144839
-0.014034
-0.0122693
0.0247639
0.0256199
0.0250431
0.0236894
0.0221341
0.0204492
0.0185924
0.0165558
0.0143543
0.0120112
0.00955639
0.00702681
0.00446562
0.00191978
-0.000562827
-0.0029365
-0.00516068
-0.00720233
-0.0090375
-0.0106519
-0.0120405
-0.0132064
-0.0141593
-0.0149124
-0.0154826
-0.0159012
-0.0162229
-0.0164001
-0.0159426
-0.0141449
0.0261062
0.0270413
0.0264004
0.0249025
0.0231806
0.0213238
0.0192903
0.0170718
0.0146843
0.012153
0.00950963
0.00679316
0.0040484
0.00132382
-0.00133138
-0.00387038
-0.00625174
-0.00844174
-0.0104159
-0.0121594
-0.0136671
-0.014942
-0.0159935
-0.016835
-0.017484
-0.0179734
-0.0183596
-0.0185845
-0.0181274
-0.0163006
0.0277224
0.0287159
0.027993
0.0263204
0.0243977
0.0223372
0.0200964
0.0176655
0.0150621
0.0123135
0.00945371
0.00652364
0.00356988
0.000642468
-0.00220813
-0.00493413
-0.00749335
-0.0098515
-0.0119837
-0.0138748
-0.0155195
-0.0169205
-0.0180875
-0.0190337
-0.0197771
-0.0203529
-0.0208188
-0.0211055
-0.020661
-0.0188128
0.0297302
0.0307435
0.0299001
0.0280068
0.0258396
0.0235327
0.0210427
0.0183583
0.0154988
0.0124944
0.00938129
0.00620267
0.00300701
-0.000154135
-0.00322917
-0.00616953
-0.00893253
-0.0114836
-0.0137975
-0.0158592
-0.017663
-0.0192119
-0.0205152
-0.0215864
-0.0224441
-0.023126
-0.0236905
-0.0240571
-0.0236429
-0.0217883
0.0322759
0.0332617
0.032235
0.0300579
0.0275844
0.0249713
0.0221733
0.0191781
0.0160074
0.0126943
0.00927797
0.00580403
0.00232292
-0.00111239
-0.00444945
-0.0076393
-0.0106392
-0.0134146
-0.0159406
-0.018202
-0.0201932
-0.0219173
-0.0233835
-0.0246055
-0.0256025
-0.0264145
-0.0271019
-0.0275724
-0.0272152
-0.0253815
0.0356325
0.036483
0.0351723
0.0326189
0.0297504
0.0267431
0.0235509
0.0201618
0.0166005
0.0129039
0.00911478
0.00528136
0.001456
-0.00230731
-0.0059559
-0.00944122
-0.0127213
-0.0157624
-0.0185403
-0.0210403
-0.0232571
-0.0251934
-0.0268586
-0.0282661
-0.0294357
-0.0304093
-0.0312485
-0.0318536
-0.0315936
-0.0298305
0.0402384
0.0407391
0.0389627
0.0358904
0.0324951
0.0289641
0.0252521
0.0213489
0.0172838
0.0130986
0.00884003
0.00455942
0.000310769
-0.00385165
-0.0078761
-0.0117158
-0.015331
-0.0186902
-0.0217709
-0.0245595
-0.0270515
-0.0292501
-0.0311639
-0.0328062
-0.034197
-0.0353787
-0.0364126
-0.0371985
-0.0371109
-0.0355227
0.0469929
0.0467599
0.0442247
0.0404276
0.0363003
0.0320201
0.0275528
0.0229026
0.0181106
0.0132282
0.00830989
0.00341126
-0.00141213
-0.00610724
-0.0106255
-0.0149247
-0.0189696
-0.0227334
-0.0261961
-0.0293455
-0.0321803
-0.0347107
-0.0369343
-0.0388632
-0.0405168
-0.0419343
-0.043172
-0.0441461
-0.0443083
-0.0430883
0.0588717
0.0569208
0.0527701
0.0476845
0.0423361
0.036822
0.0311365
0.0253149
0.0194165
0.0135032
0.00763393
0.00186362
-0.00375778
-0.0091866
-0.014386
-0.019326
-0.0239831
-0.0283391
-0.0323826
-0.0361068
-0.0395038
-0.0425652
-0.0453073
-0.0477351
-0.0498575
-0.0516992
-0.0533067
-0.054665
-0.0554353
-0.0549782
0.00576207
0.00676078
0.00852689
0.00994687
0.0111532
0.0122845
0.013372
0.0144238
0.0154494
0.0164582
0.017459
0.0184601
0.0194707
0.0205004
0.0215592
0.0226588
0.023814
0.0250427
0.0263655
0.0278066
0.0293973
0.0311798
0.0332067
0.0355495
0.0383062
0.0416224
0.0456955
0.0507743
0.0570712
0.0653236
0.0101225
0.0111536
0.0123258
0.0133155
0.0142098
0.0150691
0.0159048
0.0167211
0.0175255
0.0183261
0.0191309
0.019948
0.0207861
0.0216543
0.0225629
0.0235241
0.0245524
0.0256659
0.026886
0.0282393
0.029761
0.0314971
0.0335088
0.0358802
0.0387296
0.0422316
0.0466366
0.0523051
0.0597236
0.0696812
0.0125455
0.0134678
0.0143658
0.015175
0.0159646
0.0167519
0.0175344
0.0183131
0.0190932
0.0198808
0.0206823
0.0215045
0.0223551
0.0232428
0.0241777
0.0251718
0.0262398
0.0274
0.028675
0.0300934
0.0316927
0.0335228
0.0356507
0.0381695
0.0412113
0.0449675
0.049721
0.0558881
0.0641215
0.0753044
0.0146723
0.0154852
0.0162681
0.0169968
0.0177215
0.018453
0.0191908
0.0199379
0.0206997
0.0214819
0.0222905
0.0231323
0.0240147
0.0249463
0.0259375
0.0270005
0.0281507
0.0294069
0.0307927
0.0323387
0.0340846
0.0360833
0.0384061
0.0411518
0.0444601
0.0485318
0.0536638
0.0602868
0.0691421
0.0811482
0.0166584
0.0173769
0.0180689
0.0187253
0.019389
0.0200708
0.0207717
0.0214948
0.0222447
0.0230266
0.023846
0.0247094
0.0256241
0.026599
0.0276446
0.0287737
0.0300023
0.0313501
0.0328423
0.0345109
0.0363981
0.0385593
0.0410698
0.0440328
0.0475935
0.0519602
0.0574388
0.0644686
0.0738731
0.0866201
0.0184735
0.0191078
0.019722
0.0203175
0.0209328
0.0215775
0.0222526
0.0229607
0.0237057
0.0244924
0.025326
0.0262127
0.0271599
0.0281764
0.029273
0.0304629
0.0317626
0.0331927
0.0347793
0.036556
0.0385666
0.0408692
0.0435418
0.0466915
0.0504681
0.055086
0.06086
0.068241
0.0781329
0.0915816
0.020113
0.0206717
0.0212196
0.0217651
0.0223425
0.0229593
0.0236163
0.0243156
0.0250607
0.025856
0.0267063
0.0276177
0.0285975
0.0296544
0.0307995
0.0320461
0.0334114
0.0349163
0.036588
0.0384612
0.040581
0.0430074
0.0458206
0.0491307
0.0530914
0.0579221
0.0639459
0.0716259
0.081932
0.0960033
0.021571
0.0220616
0.0225526
0.0230571
0.0236045
0.0242004
0.0248449
0.0255399
0.0262884
0.0270943
0.0279622
0.0288981
0.0299089
0.0310037
0.0321934
0.0334918
0.0349162
0.0364882
0.0382355
0.0401938
0.0424093
0.0449433
0.0478779
0.0513255
0.0554426
0.060453
0.066687
0.0746185
0.0852648
0.0998592
0.0228384
0.0232679
0.0237106
0.024182
0.0247061
0.0252864
0.0259227
0.0266164
0.0273701
0.0281873
0.0290724
0.0300311
0.0310703
0.0321991
0.0334284
0.0347723
0.0362483
0.0378784
0.039691
0.0417223
0.0440194
0.0466447
0.0496818
0.0532446
0.0574922
0.0626517
0.0690594
0.0771985
0.0881167
0.103134
0.0239082
0.0242841
0.0246866
0.025132
0.0256382
0.0262073
0.0268384
0.0275327
0.0282922
0.0291203
0.0300211
0.031
0.032064
0.033222
0.0344852
0.0358677
0.0373871
0.0390661
0.0409331
0.043025
0.0453896
0.04809
0.051211
0.0548677
0.0592214
0.0645013
0.0710488
0.0793548
0.0904812
0.105838
0.0247777
0.0251081
0.0254784
0.0259039
0.0263969
0.026958
0.027586
0.0282817
0.0290471
0.0298848
0.030799
0.0317949
0.0328795
0.0340616
0.0353526
0.0367664
0.0383212
0.0400395
0.0419502
0.0440906
0.046509
0.0492692
0.0524565
0.0561874
0.0606242
0.0659983
0.0726549
0.0810904
0.0923687
0.107996
0.0254493
0.0257432
0.026089
0.0264998
0.0269835
0.027539
0.0281653
0.0288628
0.0296331
0.0304788
0.0314038
0.0324132
0.0335139
0.0347149
0.0360273
0.0374655
0.0390474
0.0407959
0.0427401
0.0449176
0.0473769
0.0501824
0.05342
0.0572068
0.0617062
0.0671508
0.0738889
0.0824204
0.0938041
0.10964
0.0259309
0.0261977
0.0265261
0.0269269
0.0274042
0.0279561
0.0285816
0.0292807
0.0300549
0.0309065
0.0318395
0.0328588
0.0339713
0.0351859
0.0365139
0.0379695
0.0395709
0.041341
0.0433091
0.0455129
0.0480014
0.0508391
0.0541122
0.0579385
0.062482
0.067976
0.0747714
0.0833695
0.094821
0.11081
0.0262352
0.0264843
0.0268018
0.0271965
0.0276699
0.0282198
0.0288449
0.0295452
0.030322
0.0311776
0.0321157
0.0331414
0.0342615
0.0354848
0.0368227
0.0382895
0.0399032
0.0416871
0.0436704
0.0458909
0.0483979
0.0512559
0.0545514
0.0584026
0.0629739
0.0684989
0.0753303
0.0839691
0.0954557
0.111555
0.0263782
0.0266187
0.0269311
0.027323
0.0277946
0.0283436
0.0289686
0.0296696
0.0304477
0.0313052
0.0322459
0.0332747
0.0343984
0.0356259
0.0369686
0.0384407
0.0400604
0.0418508
0.0438414
0.0460699
0.0485857
0.0514534
0.0547597
0.0586228
0.0632073
0.0687469
0.0755957
0.0842532
0.0957499
0.111917
0.0263783
0.0266188
0.0269312
0.0273231
0.0277948
0.0283438
0.0289687
0.0296697
0.0304478
0.0313054
0.032246
0.0332748
0.0343985
0.035626
0.0369687
0.0384407
0.0400605
0.0418509
0.0438414
0.04607
0.0485857
0.0514535
0.0547598
0.0586229
0.0632074
0.068747
0.0755957
0.0842532
0.0957499
0.111917
0.0262356
0.0264847
0.0268022
0.0271969
0.0276703
0.0282202
0.0288453
0.0295456
0.0303224
0.031178
0.0321161
0.0331417
0.0342618
0.0354851
0.036823
0.0382897
0.0399035
0.0416873
0.0436706
0.0458911
0.0483981
0.0512561
0.0545517
0.0584028
0.0629741
0.068499
0.0753304
0.0839692
0.0954558
0.111556
0.0259316
0.0261984
0.0265268
0.0269276
0.0274049
0.0279568
0.0285822
0.0292813
0.0300555
0.0309071
0.03184
0.0328593
0.0339718
0.0351864
0.0365143
0.0379699
0.0395712
0.0413413
0.0433094
0.0455132
0.0480017
0.0508394
0.0541125
0.0579388
0.0624823
0.0679763
0.0747716
0.0833696
0.0948213
0.11081
0.0254502
0.0257442
0.02609
0.0265008
0.0269844
0.0275399
0.0281662
0.0288637
0.029634
0.0304796
0.0314045
0.0324139
0.0335147
0.0347156
0.036028
0.0374661
0.039048
0.0407964
0.0427406
0.044918
0.0473774
0.0501829
0.0534204
0.0572072
0.0617067
0.0671512
0.0738892
0.0824207
0.0938045
0.10964
0.0247789
0.0251094
0.0254797
0.0259051
0.0263981
0.0269591
0.0275871
0.0282828
0.0290481
0.0298859
0.0308
0.0317958
0.0328804
0.0340625
0.0353534
0.0367672
0.0383219
0.0400401
0.0419508
0.0440912
0.0465096
0.0492698
0.0524571
0.0561879
0.0606248
0.0659989
0.0726554
0.0810908
0.0923692
0.107996
0.0239097
0.0242856
0.024688
0.0251334
0.0256396
0.0262087
0.0268398
0.027534
0.0282935
0.0291216
0.0300223
0.0310011
0.032065
0.033223
0.0344861
0.0358686
0.037388
0.0390669
0.0409339
0.0430257
0.0453903
0.0480907
0.0512116
0.0548683
0.059222
0.0645021
0.0710496
0.0793555
0.0904819
0.105838
0.0228401
0.0232696
0.0237122
0.0241837
0.0247077
0.025288
0.0259243
0.0266179
0.0273716
0.0281887
0.0290738
0.0300323
0.0310715
0.0322002
0.0334295
0.0347734
0.0362493
0.0378794
0.0396919
0.0417232
0.0440203
0.0466455
0.0496825
0.0532452
0.057493
0.0626527
0.0690605
0.0771996
0.0881176
0.103135
0.0215729
0.0220635
0.0225544
0.023059
0.0236063
0.0242021
0.0248466
0.0255415
0.02629
0.0270958
0.0279637
0.0288995
0.0299103
0.031005
0.0321947
0.033493
0.0349173
0.0364893
0.0382366
0.0401948
0.0424103
0.0449442
0.0478787
0.0513262
0.0554435
0.0604543
0.0666885
0.0746199
0.0852657
0.0998595
0.0201151
0.0206738
0.0212217
0.0217671
0.0223444
0.0229613
0.0236182
0.0243174
0.0250625
0.0258577
0.026708
0.0276193
0.028599
0.0296558
0.0308008
0.0320475
0.0334126
0.0349176
0.0365892
0.0384623
0.0405821
0.0430084
0.0458215
0.0491315
0.0530924
0.0579236
0.0639477
0.0716275
0.0819329
0.0960035
0.0184757
0.01911
0.0197242
0.0203196
0.0209349
0.0215796
0.0222546
0.0229626
0.0237076
0.0244943
0.0253278
0.0262144
0.0271616
0.028178
0.0292745
0.0304644
0.031764
0.0331941
0.0347806
0.0365573
0.0385678
0.0408703
0.0435428
0.0466924
0.0504693
0.0550877
0.0608622
0.0682428
0.0781338
0.0915816
0.0166607
0.0173792
0.0180712
0.0187276
0.0193912
0.0200729
0.0207738
0.0214969
0.0222468
0.0230286
0.023848
0.0247112
0.0256259
0.0266007
0.0276462
0.0287752
0.0300038
0.0313516
0.0328437
0.0345123
0.0363993
0.0385605
0.0410709
0.0440339
0.047595
0.0519622
0.0574412
0.0644705
0.0738739
0.0866199
0.0146747
0.0154876
0.0162704
0.0169991
0.0177238
0.0184552
0.019193
0.0199401
0.0207018
0.021484
0.0222926
0.0231343
0.0240166
0.0249481
0.0259392
0.0270022
0.0281523
0.0294084
0.0307943
0.0323402
0.034086
0.0360846
0.0384073
0.0411532
0.0444618
0.048534
0.0536663
0.0602886
0.0691427
0.0811477
0.0125478
0.0134702
0.0143682
0.0151774
0.015967
0.0167543
0.0175367
0.0183154
0.0190955
0.019883
0.0206844
0.0215066
0.0223571
0.0232448
0.0241796
0.0251736
0.0262416
0.0274018
0.0286767
0.030095
0.0316942
0.0335242
0.0356521
0.0381712
0.0412132
0.0449698
0.0497233
0.0558896
0.0641218
0.0753038
0.0101249
0.0111561
0.0123283
0.0133179
0.0142122
0.0150715
0.0159071
0.0167235
0.0175278
0.0183284
0.0191331
0.0199502
0.0207882
0.0216564
0.0225649
0.023526
0.0245543
0.0256677
0.0268877
0.028241
0.0297626
0.0314987
0.0335104
0.035882
0.0387317
0.0422338
0.0466385
0.052306
0.0597236
0.0696807
0.00576444
0.00676327
0.00852937
0.0099493
0.0111556
0.0122869
0.0133744
0.0144261
0.0154516
0.0164604
0.0174611
0.0184622
0.0194728
0.0205025
0.0215611
0.0226607
0.0238158
0.0250444
0.0263672
0.0278082
0.0293988
0.0311814
0.0332083
0.0355515
0.0383083
0.0416242
0.0456968
0.0507746
0.0570709
0.0653232
0.0588715
0.0569208
0.0527698
0.0476841
0.0423356
0.0368216
0.031136
0.0253143
0.0194157
0.0135022
0.00763256
0.00186192
-0.0037598
-0.00918893
-0.0143886
-0.0193289
-0.0239862
-0.0283423
-0.032386
-0.0361103
-0.0395074
-0.0425688
-0.0453109
-0.0477387
-0.049861
-0.0517027
-0.0533102
-0.0546685
-0.055439
-0.0549821
0.0469924
0.0467593
0.0442242
0.0404272
0.0363
0.0320197
0.0275523
0.0229019
0.0181096
0.013227
0.00830834
0.00340944
-0.00141422
-0.00610958
-0.0106281
-0.0149275
-0.0189726
-0.0227366
-0.0261995
-0.029349
-0.0321839
-0.0347144
-0.0369379
-0.0388668
-0.0405204
-0.0419379
-0.0431756
-0.0441496
-0.0443116
-0.0430916
0.0402383
0.0407392
0.0389629
0.0358906
0.0324952
0.028964
0.0252516
0.0213482
0.0172828
0.0130972
0.00883841
0.00455755
0.000308675
-0.00385396
-0.00787862
-0.0117185
-0.0153339
-0.0186933
-0.0217742
-0.024563
-0.0270552
-0.0292539
-0.0311678
-0.0328102
-0.034201
-0.0353826
-0.0364164
-0.0372021
-0.0371143
-0.0355258
0.0356333
0.0364838
0.0351729
0.0326193
0.0297504
0.0267427
0.0235502
0.0201607
0.0165991
0.0129023
0.00911297
0.00527938
0.00145386
-0.0023096
-0.00595836
-0.00944387
-0.0127241
-0.0157655
-0.0185436
-0.0210439
-0.0232609
-0.0251974
-0.0268629
-0.0282705
-0.0294401
-0.0304137
-0.0312527
-0.0318575
-0.0315971
-0.0298335
0.0322772
0.0332628
0.0322357
0.0300581
0.0275841
0.0249705
0.0221721
0.0191766
0.0160057
0.0126924
0.00927595
0.00580191
0.00232071
-0.00111471
-0.00445189
-0.00764191
-0.010642
-0.0134177
-0.0159439
-0.0182055
-0.0201971
-0.0219214
-0.0233879
-0.02461
-0.0256072
-0.0264192
-0.0271065
-0.0275767
-0.0272191
-0.0253848
0.0297318
0.0307446
0.0299006
0.0280066
0.0258389
0.0235316
0.0210411
0.0183565
0.0154968
0.0124922
0.00937908
0.00620042
0.00300471
-0.000156495
-0.00323162
-0.00617211
-0.00893529
-0.0114865
-0.0138007
-0.0158627
-0.0176668
-0.0192159
-0.0205195
-0.0215909
-0.0224488
-0.0231307
-0.0236952
-0.0240617
-0.0236471
-0.0217921
0.0277239
0.0287169
0.0279933
0.0263202
0.0243969
0.0223359
0.0200947
0.0176635
0.0150599
0.0123112
0.0094514
0.0065213
0.00356752
0.000640078
-0.00221059
-0.0049367
-0.00749607
-0.0098544
-0.0119868
-0.0138782
-0.0155231
-0.0169244
-0.0180915
-0.0190379
-0.0197815
-0.0203574
-0.0208234
-0.0211101
-0.0206655
-0.018817
0.0261074
0.0270421
0.0264008
0.0249022
0.0231798
0.0213226
0.0192887
0.0170699
0.0146822
0.0121507
0.00950731
0.00679081
0.00404604
0.00132144
-0.0013338
-0.00387288
-0.00625437
-0.00844452
-0.0104188
-0.0121626
-0.0136705
-0.0149456
-0.0159973
-0.016839
-0.0174881
-0.0179777
-0.018364
-0.018589
-0.0181319
-0.016305
0.0247651
0.0256208
0.0250437
0.0236893
0.0221334
0.0204481
0.018591
0.016554
0.0143523
0.0120091
0.00955413
0.00702451
0.00446331
0.00191746
-0.000565175
-0.00293891
-0.00516318
-0.00720496
-0.00904028
-0.0106548
-0.0120436
-0.0132097
-0.0141628
-0.0149161
-0.0154864
-0.0159053
-0.0162271
-0.0164044
-0.015947
-0.0141494
0.0236231
0.0243859
0.023857
0.0226346
0.0212186
0.0196805
0.0179768
0.0160988
0.0140605
0.0118832
0.00959522
0.00723172
0.0048342
0.00244807
0.00011985
-0.00210593
-0.00418966
-0.00609911
-0.00781094
-0.00931129
-0.0105954
-0.0116667
-0.0125347
-0.0132128
-0.0137173
-0.0140777
-0.014347
-0.0144881
-0.0140384
-0.0122738
0.0226311
0.023289
0.0227961
0.0216976
0.0204071
0.0189952
0.0174269
0.0156905
0.013798
0.0117696
0.00963174
0.00741808
0.00516852
0.00292696
0.000738569
-0.0013533
-0.00331005
-0.00510027
-0.0067013
-0.00809976
-0.00929126
-0.0102793
-0.0110734
-0.0116871
-0.0121361
-0.0124482
-0.0126746
-0.0127881
-0.0123518
-0.010622
0.0217473
0.0223029
0.0218361
0.0208432
0.0196752
0.0183734
0.0169257
0.0153175
0.0135575
0.0116645
0.0096636
0.00758697
0.00547289
0.0033638
0.0013035
-0.000665831
-0.00250665
-0.00418839
-0.00568907
-0.00699581
-0.00810453
-0.00901884
-0.00974839
-0.0103065
-0.0107086
-0.0109806
-0.0111726
-0.0112653
-0.0108464
-0.00915195
0.0209433
0.0213959
0.0209543
0.0200545
0.0189995
0.0178
0.0164607
0.01497
0.0133322
0.0115642
0.00969002
0.00774031
0.00575184
0.00376557
0.00182397
-3.20281e-05
-0.0017659
-0.00334796
-0.00475689
-0.00598032
-0.00701445
-0.00786303
-0.00853566
-0.00904554
-0.00940784
-0.00964697
-0.00981101
-0.00988851
-0.00949022
-0.00783155
0.0201995
0.0205458
0.0201311
0.0193173
0.0183613
0.0172644
0.0160215
0.0146397
0.0131163
0.0114653
0.0097098
0.00787912
0.00600851
0.00413746
0.00230706
0.000557041
-0.00107714
-0.00256667
-0.0038909
-0.00503795
-0.00600431
-0.00679379
-0.00741598
-0.00788392
-0.0082125
-0.00842453
-0.00856629
-0.00863333
-0.00825802
-0.00663605
0.0194935
0.0197407
0.0193543
0.0186165
0.0177488
0.0167548
0.0156018
0.0143203
0.0129047
0.0113646
0.00972156
0.00800381
0.00624507
0.00448333
0.00275832
0.00110849
-0.000431756
-0.00183449
-0.00307976
-0.00415612
-0.00506034
-0.00579629
-0.00637348
-0.00680479
-0.00710479
-0.0072948
-0.00741935
-0.00748013
-0.00713
-0.00554654
0.0188083
0.0189667
0.0186094
0.0179433
0.0171567
0.0162564
0.0151955
0.0140057
0.0126927
0.0112589
0.00972376
0.00811436
0.00646302
0.0048062
0.00318218
0.00162815
0.000177399
-0.00114305
-0.00231391
-0.00332421
-0.00417095
-0.00485805
-0.00539488
-0.00579419
-0.00607011
-0.00624269
-0.00635462
-0.00641284
-0.00609002
-0.00454856
0.0181336
0.0182111
0.0178846
0.0172883
0.0165755
0.0157588
0.0147959
0.0136913
0.0124761
0.0111453
0.00971474
0.00821045
0.00666337
0.00510838
0.00358227
0.0021209
0.000756397
-0.000485146
-0.00158514
-0.00253307
-0.00332616
-0.00396836
-0.00446888
-0.00484027
-0.00509624
-0.00525567
-0.00535925
-0.00541852
-0.00512524
-0.00363147
0.0174619
0.0174623
0.0171676
0.0166394
0.0159982
0.0152591
0.014393
0.0133735
0.0122511
0.0110209
0.00969275
0.00829151
0.00684675
0.00539172
0.00396164
0.00259095
0.00131055
0.000145548
-0.000886189
-0.00177462
-0.0025172
-0.00311786
-0.00358567
-0.00393286
-0.00417286
-0.0043233
-0.00442283
-0.00448675
-0.00422548
-0.00278783
0.0167862
0.0167105
0.0164494
0.0159881
0.015417
0.014753
0.0139777
0.0130487
0.0120138
0.0108824
0.00965588
0.00835676
0.0070135
0.0056577
0.00432291
0.00304201
0.00184462
0.000754778
-0.000210451
-0.00104153
-0.00173614
-0.00229822
-0.00273663
-0.0030633
-0.00329122
-0.00343694
-0.00353688
-0.00360932
-0.00338284
-0.00201301
0.0160974
0.0159489
0.015723
0.0153278
0.014827
0.0142339
0.0135424
0.0127127
0.0117612
0.010727
0.00960214
0.00840522
0.00716369
0.00590749
0.00466834
0.00347748
0.00236305
0.00134791
0.000448242
-0.000326978
-0.000975699
-0.00150186
-0.00191407
-0.00222392
-0.00244388
-0.00258939
-0.00269461
-0.00277988
-0.00259153
-0.00130492
0.0153867
0.0151699
0.014981
0.0146511
0.0142198
0.0136977
0.0130858
0.0123573
0.0114912
0.0105521
0.00952938
0.00843569
0.00729714
0.00614201
0.00500001
0.00390053
0.00287006
0.0019301
0.00109582
0.000375528
-0.000229036
-0.000721802
-0.00111111
-0.00140809
-0.00162463
-0.00177506
-0.00189095
-0.00199392
-0.00184783
-0.000663691
0.0146445
0.0143665
0.0142172
0.013952
0.0135894
0.0131391
0.0126057
0.0119751
0.0112011
0.0103543
0.00943508
0.00844669
0.00741342
0.00636193
0.00531979
0.00431423
0.00336983
0.0025065
0.00173819
0.00107241
0.000510494
4.85413e-05
-0.000321439
-0.00061004
-0.000828386
-0.000989749
-0.00112269
-0.00124892
-0.00114994
-9.14314e-05
0.0138596
0.0135312
0.0134243
0.0132244
0.0129311
0.0125544
0.0120984
0.0115594
0.0108877
0.0101302
0.0093163
0.00843638
0.00751178
0.00656776
0.00562947
0.00472167
0.00386667
0.00308246
0.00238146
0.0017702
0.0012495
0.000815513
0.000460707
0.000175208
-5.1268e-05
-0.000230484
-0.000388147
-0.000544274
-0.000498296
0.000408186
0.0130164
0.0126545
0.0125947
0.012462
0.0122392
0.0119376
0.0115591
0.0111072
0.0105457
0.00987808
0.00917053
0.00840279
0.00759132
0.00675983
0.00593076
0.00512596
0.00436499
0.00366339
0.00303175
0.00247528
0.00199422
0.00158478
0.00124011
0.000951285
0.00070916
0.000503795
0.000312736
0.000119126
0.000104647
0.000830374
0.0120944
0.0117239
0.0117174
0.0116554
0.0115065
0.0112819
0.010983
0.010618
0.0101672
0.00959613
0.0089952
0.00834392
0.00765104
0.00693836
0.00622525
0.00553003
0.00486883
0.00425421
0.00369436
0.00319288
0.00274927
0.00235999
0.00201924
0.0017193
0.00145259
0.00121116
0.00097672
0.000736757
0.000653555
0.00117015
0.0110749
0.0107354
0.0107868
0.0107977
0.010728
0.0105845
0.010368
0.010091
0.00974682
0.00928037
0.00878599
0.00825624
0.00768851
0.00710236
0.00651374
0.00593664
0.00538289
0.0048611
0.00437634
0.00392999
0.00352068
0.00314635
0.00280198
0.00248135
0.00217911
0.00189005
0.00160068
0.00130485
0.00114332
0.00142412
0.00992538
0.0097165
0.00984049
0.00991407
0.00991964
0.00985645
0.00972047
0.00952687
0.00927995
0.00892474
0.00853317
0.00812905
0.00769468
0.00724653
0.00679646
0.00635274
0.00592111
0.00550439
0.00510301
0.00471491
0.0043374
0.00397304
0.00361561
0.00326114
0.00290801
0.00255498
0.00219455
0.00182891
0.00157222
0.00159214
0.00844779
0.00861034
0.00890176
0.00903648
0.00909966
0.00910346
0.00903775
0.00891438
0.00874965
0.00851038
0.00822062
0.00794657
0.00765878
0.00736848
0.00708156
0.00679794
0.00651407
0.00622412
0.00592141
0.00559983
0.00525608
0.00489083
0.00450413
0.0040955
0.00366831
0.00322702
0.0027715
0.00231213
0.0019313
0.00167055
0.00600246
0.00672679
0.0074626
0.00782079
0.00801997