/*--------------------------------*- C++ -*----------------------------------*\
  =========                 |
  \\      /  F ield         | OpenFOAM: The Open Source CFD Toolbox
   \\    /   O peration     | Website:  https://openfoam.org
    \\  /    A nd           | Version:  12
     \\/     M anipulation  |
\*---------------------------------------------------------------------------*/
FoamFile
{
    format      ascii;
    class       volScalarField;
    location    "280";
    object      pPrime2Mean;
}
// * * * * * * * * * * * * * * * * * * * * * * * * * * * * * * * * * * * * * //

dimensions      [0 4 -4 0 0 0 0];

internalField   nonuniform List<scalar> 
6750
(
0.00467639
0.00466955
0.00466087
0.00465319
0.00464472
0.00467831
0.00466879
0.00465385
0.00463613
0.00461754
0.0047005
0.0046887
0.00466933
0.00464454
0.0046179
0.00474203
0.00472946
0.00470862
0.00468149
0.00465241
0.00480039
0.00478887
0.00476971
0.00474449
0.00471748
0.00487146
0.0048626
0.00484773
0.00482775
0.00480626
0.00495
0.00494502
0.00493641
0.00492413
0.00491079
0.00503052
0.0050302
0.00502911
0.00502617
0.0050228
0.00510789
0.00511255
0.00511955
0.0051267
0.00513425
0.00517776
0.00518734
0.00520231
0.0052195
0.005238
0.00523689
0.00525095
0.00527319
0.0052996
0.00532828
0.00528317
0.00530099
0.00532935
0.00536355
0.00540091
0.0053156
0.00533628
0.00536926
0.0054094
0.00545344
0.00533415
0.00535668
0.00539265
0.00543665
0.00548509
0.00533958
0.00536295
0.00540024
0.005446
0.00549647
0.00533314
0.00535637
0.00539348
0.00543902
0.00548926
0.00531479
0.00533694
0.00537234
0.00541569
0.00546341
0.00528342
0.00530347
0.00533552
0.00537458
0.00541743
0.00523847
0.00525546
0.00528255
0.00531528
0.00535101
0.00518017
0.00519323
0.00521394
0.00523855
0.00526524
0.00510971
0.00511817
0.00513141
0.00514657
0.00516283
0.00502935
0.00503283
0.00503799
0.005043
0.00504817
0.00494251
0.00494097
0.00493802
0.00493292
0.00492714
0.00485363
0.00484745
0.00483702
0.00482263
0.00480693
0.00476792
0.00475792
0.0047413
0.0047193
0.00469557
0.00469095
0.00467835
0.00465753
0.00463041
0.00460132
0.00462797
0.00461438
0.00459199
0.00456308
0.0045321
0.00458312
0.00457036
0.00454955
0.00452308
0.0044947
0.00455892
0.00454853
0.00453227
0.00451298
0.00449278
0.0045562
0.00454865
0.0045389
0.00452999
0.00452044
0.00461497
0.00457975
0.00451243
0.00441702
0.00429522
0.00414833
0.00397682
0.00378116
0.00356324
0.00332599
0.00307207
0.00280782
0.00253891
0.0022719
0.00201336
0.00176921
0.00154415
0.00134143
0.00116257
0.00100739
0.000874406
0.000763367
0.00067058
0.000593576
0.000530099
0.000477992
0.000435463
0.000400843
0.000372939
0.000355112
0.00462043
0.00456202
0.0044758
0.00436469
0.0042297
0.00407171
0.00389176
0.00369146
0.00347342
0.00324053
0.00299502
0.00274333
0.00248979
0.00223973
0.00199829
0.00177002
0.00155859
0.0013665
0.00119513
0.00104487
0.000915391
0.000803849
0.000709888
0.000631114
0.000565475
0.000511209
0.000466661
0.000430128
0.000399771
0.000376236
0.00460453
0.00452747
0.00442639
0.00430405
0.00416025
0.00399578
0.00381184
0.00361033
0.0033942
0.00316591
0.00292853
0.00268781
0.00244731
0.00221141
0.00198421
0.00176921
0.00156923
0.00138625
0.00122144
0.00107514
0.00094702
0.000836245
0.000741526
0.000661245
0.00059374
0.000537405
0.000490715
0.00045207
0.000420171
0.000395679
0.00457803
0.00448875
0.00437713
0.00424689
0.00409787
0.00393032
0.00374531
0.00354493
0.00333206
0.00310848
0.00287848
0.00264655
0.00241592
0.00219044
0.00197353
0.00176814
0.00157658
0.00140052
0.00124099
0.00109833
0.000972341
0.000862503
0.000767736
0.000686735
0.000618068
0.000560233
0.00051164
0.000470785
0.00043691
0.000413075
0.00454813
0.00445031
0.00433078
0.00419451
0.00404207
0.00387321
0.00368885
0.00349091
0.00328194
0.00306335
0.00283996
0.00261521
0.00239225
0.00217456
0.00196524
0.00176694
0.00158175
0.00141118
0.00125615
0.00111699
0.000993533
0.000885227
0.000791167
0.000710196
0.000640994
0.00058213
0.000532009
0.000489021
0.000453366
0.000430142
0.00451952
0.00441523
0.00428981
0.00414893
0.00399399
0.00382488
0.00364203
0.00344712
0.00324212
0.00302841
0.00281069
0.0025917
0.00237459
0.00216262
0.00195877
0.0017656
0.00158516
0.00141891
0.00126769
0.00113178
0.00101096
0.000904588
0.000811763
0.000731346
0.000662059
0.000602543
0.000551192
0.000506484
0.000469365
0.000446863
0.00449511
0.00438581
0.00425578
0.00411154
0.00395483
0.00378592
0.00360495
0.00341315
0.00321176
0.00300251
0.00278942
0.00257488
0.00236201
0.00215401
0.00195388
0.00176423
0.00158717
0.00142419
0.00127609
0.00114308
0.00102481
0.000920542
0.000829241
0.000749707
0.000680659
0.000620795
0.000568563
0.000522546
0.000484284
0.00046262
0.00447731
0.00436405
0.0042303
0.00408336
0.00392561
0.00375698
0.00357788
0.00338892
0.00319053
0.00298504
0.00277545
0.00256405
0.00235395
0.00214839
0.00195045
0.00176292
0.00158803
0.00142734
0.00128168
0.00115114
0.00103524
0.000933073
0.000843433
0.000765003
0.000696484
0.000636496
0.000583695
0.000536799
0.000497684
0.00047683
0.00446828
0.00435176
0.00421474
0.00406543
0.00390687
0.00373858
0.00356108
0.00337437
0.00317835
0.00297567
0.00276835
0.00255877
0.00235004
0.00214547
0.00194836
0.00176169
0.00158788
0.00142859
0.00128466
0.00115612
0.00104232
0.000942154
0.000854222
0.000777063
0.000709317
0.000649546
0.000596508
0.000548974
0.000509219
0.000489024
0.00447016
0.00435076
0.00421053
0.00405883
0.00389938
0.00373144
0.00355497
0.00336965
0.00317529
0.00297421
0.00276791
0.00255881
0.00235005
0.00214512
0.00194754
0.00176055
0.00158679
0.00142804
0.00128517
0.00115811
0.00104607
0.00094774
0.000861512
0.000785759
0.000718956
0.000659738
0.000606753
0.000558791
0.000518547
0.000498791
0.00448512
0.00436289
0.00421919
0.00406469
0.00390392
0.00373598
0.00355999
0.00337511
0.00318151
0.00298076
0.00277414
0.00256411
0.00235392
0.00214726
0.00194794
0.00175951
0.00158481
0.00142575
0.00128323
0.00115712
0.00104648
0.000949777
0.000865211
0.000790954
0.000725326
0.000666906
0.000614176
0.000565965
0.000525352
0.000505784
0.00451559
0.0043902
0.00424244
0.00408441
0.00392167
0.0037531
0.00357673
0.00339134
0.00319738
0.00299557
0.0027872
0.00257476
0.00236167
0.00215189
0.00194958
0.00175856
0.00158192
0.0014217
0.00127884
0.00115313
0.00104349
0.000948206
0.000865243
0.000792564
0.00072827
0.000670862
0.000618521
0.000570212
0.000529362
0.000509739
0.00456433
0.0044351
0.00428245
0.00411991
0.00395441
0.00378394
0.00360606
0.00341916
0.00322346
0.00301909
0.0028074
0.00259098
0.00237344
0.00215909
0.00195246
0.00175768
0.00157809
0.00141585
0.00127194
0.00114609
0.00103707
0.000942962
0.000861527
0.000790461
0.0007276
0.000671239
0.000619507
0.000571289
0.00053037
0.000510485
0.00463471
0.00450052
0.00434182
0.00417344
0.00400381
0.00383017
0.00364941
0.00345968
0.0032606
0.003052
0.00283526
0.0026131
0.00238944
0.00216898
0.00195663
0.00175688
0.00157326
0.00140812
0.00126244
0.00113591
0.00102713
0.00093399
0.000853981
0.000784501
0.00072317
0.000667951
0.00061696
0.00056905
0.000528283
0.000507985
0.00473077
0.00459014
0.00442391
0.00424797
0.0040726
0.00389408
0.00370866
0.00351442
0.00331004
0.00309523
0.00287142
0.00264157
0.00240995
0.00218171
0.00196217
0.00175613
0.00156739
0.00139841
0.00125023
0.00112248
0.00101359
0.000921198
0.000842497
0.000774592
0.000714806
0.00066084
0.000610792
0.000563472
0.000523161
0.000502398
0.00485761
0.00470877
0.00453321
0.00434764
0.00416445
0.0039788
0.00378664
0.00358556
0.00337343
0.00314999
0.00291676
0.00267697
0.00243534
0.0021975
0.00196915
0.00175544
0.00156039
0.00138662
0.0012352
0.00110568
0.000996313
0.000904427
0.000826904
0.000760564
0.000702379
0.000649843
0.000601033
0.000554703
0.000515283
0.000494189
0.00502191
0.00486276
0.00467581
0.00447798
0.00428429
0.00408868
0.00388708
0.00367595
0.00345295
0.00321785
0.00297232
0.00271998
0.00246604
0.00221656
0.00197764
0.00175475
0.00155217
0.00137266
0.00121726
0.00108541
0.000975135
0.000883489
0.00080701
0.000742209
0.000685818
0.000635031
0.000587916
0.000543174
0.000505306
0.000484284
0.00523272
0.00506074
0.00485986
0.00464626
0.00443855
0.00422946
0.00401443
0.00378917
0.00355133
0.00330075
0.00303943
0.00277148
0.00250255
0.00223913
0.00198769
0.00175403
0.00154266
0.00135641
0.00119628
0.00106152
0.000949917
0.000858247
0.000782728
0.000719548
0.000665205
0.000616713
0.000572021
0.000529799
0.00049451
0.000474374
0.00550244
0.00531425
0.00509607
0.00486206
0.00463567
0.00440822
0.00417436
0.00392968
0.00367191
0.0034011
0.00311975
0.00283246
0.00254538
0.00226538
0.00199931
0.00175322
0.00153175
0.00133776
0.00117212
0.00103387
0.000920561
0.000828686
0.000754171
0.000692871
0.000641074
0.000595689
0.000554599
0.000516376
0.000485241
0.00046738
0.00584823
0.00563901
0.00539882
0.00513797
0.00488645
0.00463367
0.00437403
0.00410301
0.00381876
0.00352178
0.00321513
0.00290401
0.00259505
0.00229552
0.00201251
0.00175225
0.00151938
0.00131662
0.00114468
0.0010024
0.000887096
0.000795021
0.00072182
0.000663061
0.0006148
0.000573846
0.000538176
0.000506315
0.000481758
0.000468368
0.00629405
0.006057
0.00578801
0.00549122
0.00520503
0.0049174
0.00462247
0.00431607
0.00399688
0.00366614
0.00332768
0.0029873
0.00265213
0.00232972
0.00202731
0.00175106
0.00150544
0.00129293
0.00111397
0.000967219
0.000849814
0.000757828
0.000686699
0.000631757
0.000588831
0.000554695
0.000527396
0.000505784
0.000491631
0.000486271
0.00687359
0.00659827
0.00629092
0.005945
0.00561075
0.0052749
0.00493162
0.00457757
0.00421232
0.00383814
0.00345976
0.00308364
0.00271724
0.00236823
0.00204371
0.00174955
0.00148982
0.00126662
0.00108009
0.000928664
0.000809387
0.000718274
0.000650696
0.000601872
0.000567486
0.000544331
0.000530594
0.000525598
0.000528029
0.000536773
0.00763232
0.00730385
0.006945
0.00653077
0.0061295
0.00572662
0.00531667
0.00489826
0.00447232
0.00404241
0.00361416
0.00319454
0.0027911
0.00241127
0.00206168
0.00174756
0.00147239
0.00123772
0.00104331
0.000887406
0.000767058
0.000678419
0.000617062
0.000578362
0.000558071
0.000553078
0.000561711
0.000584057
0.000612764
0.000645764
0.00862756
0.00822708
0.00779838
0.00728977
0.00679496
0.00629824
0.00579647
0.00529128
0.0047856
0.00428442
0.0037941
0.00332171
0.00287444
0.00245899
0.00208103
0.00174482
0.00145294
0.00120624
0.00100408
0.000844557
0.000724884
0.000641667
0.000591133
0.000569345
0.00057258
0.00059789
0.000643646
0.000710364
0.00077963
0.000851511
0.00992605
0.0094301
0.00891004
0.00827337
0.00764872
0.00702071
0.00639324
0.00577187
0.00516211
0.00457029
0.00400301
0.00346681
0.00296779
0.00251125
0.00210131
0.00174077
0.001431
0.00117204
0.000962826
0.000801501
0.000685737
0.000613067
0.000581064
0.000587318
0.000629373
0.000704677
0.000810547
0.000946458
0.00107525
0.00120361
0.0115965
0.0109765
0.0103381
0.00953046
0.0087277
0.00792212
0.00712703
0.00635387
0.00561105
0.0049058
0.00424422
0.00363143
0.00307155
0.00256764
0.00212157
0.00173413
0.00140517
0.00113385
0.00091888
0.000758789
0.000652286
0.000598577
0.000597497
0.0006492
0.000753335
0.000907639
0.00110663
0.0013446
0.00155565
0.00176071
0.0136756
0.012895
0.0120977
0.0110709
0.0100408
0.00901266
0.00800985
0.0070506
0.00614597
0.00530358
0.00452846
0.00382373
0.003191
0.00263053
0.00214152
0.00172247
0.00137165
0.00108743
0.000868635
0.00071479
0.000626386
0.000605103
0.000653738
0.000775472
0.000972164
0.00124118
0.00157232
0.00195021
0.00227601
0.00258269
0.0163073
0.0152582
0.014202
0.012918
0.0116368
0.0103663
0.00913416
0.00796233
0.00686498
0.00585197
0.00492944
0.0041004
0.00336527
0.00272258
0.00216966
0.00170343
0.00132113
0.0010209
0.000802157
0.000665732
0.000613792
0.000649586
0.000776803
0.000998391
0.00131481
0.00172134
0.00220535
0.0027497
0.00325839
0.00374693
0.0203941
0.0190406
0.0176731
0.0160885
0.014491
0.0128787
0.011289
0.00975797
0.00831396
0.00697903
0.00576776
0.00468781
0.00374124
0.00292636
0.0022396
0.00167717
0.0012364
0.000916427
0.000718602
0.000645994
0.000701965
0.00088845
0.00120457
0.00164377
0.00219279
0.00282983
0.00352715
0.00426739
0.00491558
0.00555844
0.0331403
0.0307128
0.0279562
0.0251533
0.022358
0.01957
0.0168517
0.0142627
0.0118521
0.00965799
0.00770486
0.00600342
0.00455391
0.00335027
0.00238452
0.00165046
0.00114635
0.000876249
0.00084897
0.00107595
0.00156798
0.00233065
0.00335908
0.00463556
0.00612832
0.00779186
0.0095694
0.0114462
0.0133711
0.0151092
0.00462671
0.00460246
0.00458165
0.00456184
0.00454415
0.00452986
0.00452065
0.00451831
0.00452475
0.004542
0.00457227
0.00461807
0.00468235
0.00476863
0.00488126
0.00502567
0.00520895
0.00544071
0.00573436
0.0061088
0.00659079
0.00721809
0.00804167
0.00912429
0.0105377
0.0123597
0.0146744
0.0177326
0.0223657
0.0358532
0.0045999
0.00458214
0.00456708
0.00455468
0.00454696
0.0045448
0.00454929
0.00456179
0.0045839
0.00461754
0.00466496
0.00472887
0.0048125
0.00491979
0.00505562
0.00522616
0.00543949
0.00570653
0.0060423
0.00646771
0.0070121
0.00771632
0.00863481
0.00983393
0.0113886
0.0133894
0.0159825
0.0194697
0.0245054
0.0387687
0.00460234
0.00459823
0.00459615
0.00459635
0.00460101
0.00461139
0.00462895
0.00465527
0.00469214
0.00474161
0.00480607
0.00488839
0.00499201
0.00512121
0.00528128
0.00547904
0.00572349
0.00602675
0.00640536
0.00688207
0.0074885
0.00826833
0.00927907
0.0105895
0.0122765
0.0144426
0.0172902
0.0211691
0.0264884
0.0420029
0.00464197
0.00465168
0.00466321
0.00467681
0.00469497
0.0047192
0.00475114
0.00479255
0.00484541
0.00491193
0.00499473
0.00509688
0.0052221
0.00537496
0.0055612
0.00578822
0.00606578
0.00640695
0.00682924
0.00735653
0.00802155
0.00886892
0.00995647
0.0113512
0.0131259
0.0153937
0.0184322
0.0227119
0.0282277
0.0454766
0.00471361
0.00473588
0.00476051
0.00478746
0.00481939
0.0048581
0.00490541
0.00496319
0.00503355
0.00511887
0.00522194
0.00534608
0.00549527
0.00567442
0.00588972
0.00614912
0.00646312
0.00684552
0.00731458
0.00789476
0.0086191
0.00953195
0.0106895
0.012154
0.0139909
0.0163222
0.0195176
0.0242367
0.0298035
0.0491508
0.00480988
0.00484324
0.00488003
0.00491999
0.00496572
0.00501918
0.00508235
0.00515728
0.00524617
0.00535156
0.00547639
0.00562417
0.00579915
0.00600654
0.0062529
0.00654671
0.00689898
0.00732409
0.00784066
0.00847316
0.00925412
0.0102264
0.0114429
0.0129586
0.0148292
0.0171854
0.0205112
0.0257617
0.0312259
0.0531627
0.00492258
0.00496559
0.00501345
0.00506581
0.00512507
0.00519323
0.0052724
0.00536473
0.00547258
0.00559861
0.00574593
0.00591819
0.00611981
0.00635629
0.00663449
0.0069633
0.00735409
0.00782147
0.00838409
0.00906598
0.00989851
0.0109222
0.0121855
0.0137341
0.0156117
0.0179572
0.0213903
0.0273188
0.0325341
0.0577051
0.00504319
0.00509451
0.00515226
0.00521616
0.00528835
0.00537079
0.00546562
0.00557509
0.00570167
0.00584815
0.00601774
0.00621425
0.00644222
0.00670735
0.00701676
0.00737956
0.00780729
0.00831457
0.0089198
0.00964626
0.0105238
0.0115904
0.0128891
0.0144552
0.0163178
0.018622
0.0221372
0.0289383
0.033782
0.0629849
0.00516333
0.00522176
0.0052882
0.00536257
0.00544674
0.00554261
0.00565228
0.00577806
0.00592246
0.00608837
0.0062791
0.00649856
0.00675141
0.00704344
0.00738198
0.00777619
0.00823766
0.00878079
0.0094236
0.0101885
0.0111039
0.0122051
0.0135302
0.0151025
0.0169338
0.0191728
0.0227386
0.0306414
0.0350354
0.0691687
0.00527541
0.00533986
0.00541379
0.00549738
0.00559229
0.00570032
0.00582351
0.00596416
0.0061248
0.00630838
0.00651825
0.00675839
0.00703357
0.00734965
0.007714
0.00813577
0.00862642
0.00920015
0.00987451
0.0106712
0.0116171
0.0127457
0.0140905
0.0156619
0.0174518
0.0196104
0.0231898
0.0324321
0.0363622
0.0763019
0.00537323
0.00544264
0.00552282
0.00561424
0.00571838
0.00583693
0.00597185
0.0061254
0.0063001
0.00649891
0.00672521
0.00698302
0.00727718
0.00761357
0.00799952
0.0084441
0.00895862
0.00955706
0.0102565
0.011078
0.0120476
0.0131973
0.0145572
0.0161246
0.0178688
0.0199418
0.0234969
0.0342873
0.0378107
0.0842111
0.00545221
0.00552553
0.00561071
0.00570846
0.0058201
0.00594723
0.00609172
0.00625577
0.00644188
0.00665299
0.00689252
0.0071645
0.00747377
0.00782621
0.00822906
0.00869132
0.00922414
0.00984129
0.0105595
0.0113993
0.0123862
0.0135515
0.0149231
0.0164862
0.0181853
0.0201771
0.0236765
0.0361445
0.0393798
0.0924073
0.00550961
0.00558582
0.0056747
0.00577719
0.00589446
0.00602802
0.00617966
0.00635153
0.00654612
0.00676635
0.00701566
0.00729806
0.00761836
0.00798241
0.00839739
0.00887221
0.00941794
0.0100481
0.0107793
0.0116315
0.0126299
0.0138059
0.0151866
0.016746
0.0184048
0.0203276
0.0237535
0.0378977
0.0409935
0.100112
0.00554445
0.00562253
0.00571385
0.00581944
0.00594039
0.00607813
0.00623441
0.00641134
0.00661141
0.00683754
0.00709314
0.0073822
0.0077095
0.00808085
0.0085034
0.00898604
0.00953973
0.0101779
0.0109169
0.0117764
0.0127815
0.013964
0.0153509
0.0169079
0.0185348
0.0204062
0.023757
0.0393701
0.0424614
0.106361
0.00555733
0.00563631
0.00572881
0.00583591
0.00595863
0.00609836
0.00625683
0.00643614
0.00663879
0.00686771
0.00712626
0.00741841
0.00774893
0.00812362
0.00854966
0.0090359
0.00959328
0.0102352
0.0109777
0.0118406
0.0128488
0.0140345
0.0154249
0.0169815
0.0185911
0.0204352
0.0237287
0.0402163
0.0433877
0.109922
0.00555
0.00562901
0.00572155
0.00582867
0.00595138
0.00609107
0.00624949
0.00642873
0.00663131
0.00686011
0.00711852
0.00741048
0.00774079
0.00811529
0.00854117
0.00902734
0.00958474
0.0102267
0.0109695
0.0118327
0.0128413
0.0140277
0.0154189
0.0169762
0.0185864
0.0204314
0.0237205
0.040201
0.0433766
0.110058
0.00552243
0.00560061
0.00569205
0.00579773
0.0059187
0.00605638
0.00621253
0.00638928
0.00658912
0.00681495
0.00707014
0.00735868
0.0076854
0.0080562
0.00847834
0.00896079
0.00951455
0.0101531
0.0108926
0.0117531
0.0127596
0.0139441
0.0153333
0.0168927
0.0185214
0.0203953
0.0237339
0.0393292
0.0424324
0.106752
0.00547303
0.00554943
0.00563855
0.00574127
0.00585867
0.00599224
0.00614378
0.00631544
0.00650972
0.00672951
0.0069782
0.00725982
0.00757928
0.00794253
0.0083569
0.00883147
0.00937737
0.0100082
0.0107405
0.0115943
0.0125951
0.0137743
0.0151588
0.0167218
0.0183838
0.0203106
0.0237204
0.0378451
0.0409572
0.100708
0.00540155
0.00547517
0.00556073
0.0056589
0.00577087
0.00589819
0.00604273
0.00620664
0.00639244
0.00660303
0.00684183
0.0071129
0.00742115
0.00777265
0.0081748
0.00863678
0.0091699
0.009788
0.0105079
0.0113501
0.0123402
0.0135098
0.0148863
0.016454
0.0181579
0.0201556
0.0236406
0.0360963
0.0393472
0.09315
0.00530929
0.00537912
0.00545985
0.00555192
0.00565664
0.00577564
0.00591083
0.00606441
0.00623891
0.00643724
0.0066628
0.00691965
0.00721275
0.00754816
0.00793338
0.00837774
0.00889269
0.00949234
0.0101939
0.0110185
0.0119921
0.0131468
0.014512
0.0160849
0.017836
0.0199179
0.0234663
0.0342576
0.0377909
0.0850504
0.00519928
0.00526432
0.00533899
0.00542348
0.00551924
0.005628
0.00575174
0.00589269
0.00605334
0.00623659
0.00644583
0.00668508
0.00695924
0.0072744
0.0076381
0.00805973
0.00855093
0.00912608
0.00980286
0.010603
0.0115534
0.0126872
0.0140375
0.015615
0.0174145
0.0195868
0.0231726
0.0324308
0.0363627
0.077194
0.00507633
0.00513557
0.005203
0.00527853
0.00536385
0.00546076
0.0055713
0.00569769
0.0058424
0.00600826
0.00619859
0.00641734
0.00666933
0.00696057
0.00729855
0.00769272
0.00815482
0.00869947
0.0093448
0.0101133
0.0110331
0.0121392
0.0134696
0.0150488
0.0168931
0.0191525
0.0227412
0.0306734
0.0350622
0.0700795
0.00494677
0.00499921
0.00505826
0.00512365
0.0051973
0.0052811
0.00537714
0.00548758
0.00561484
0.00576164
0.00593118
0.00612729
0.00635465
0.0066191
0.00692805
0.00729081
0.00771918
0.00822794
0.00883553
0.00956525
0.0104467
0.0115175
0.0128211
0.0143953
0.0162751
0.0186082
0.0221636
0.0290044
0.0338405
0.0638924
0.00481821
0.00486275
0.00491231
0.00496653
0.0050276
0.00509746
0.00517818
0.00527186
0.0053808
0.00550759
0.00565528
0.00582752
0.00602878
0.0062647
0.00654243
0.00687112
0.00726243
0.00773106
0.00829571
0.00898027
0.00981587
0.010843
0.0121107
0.0136689
0.0155685
0.0179525
0.0214418
0.0274166
0.0326296
0.0585988
0.00469899
0.00473437
0.00477331
0.00481551
0.0048634
0.00491889
0.00498395
0.00506057
0.00515093
0.0052575
0.00538311
0.00553121
0.00570604
0.00591293
0.00615874
0.00645227
0.00680482
0.00723087
0.00774898
0.00838344
0.00916656
0.0101414
0.0113624
0.0128895
0.0147873
0.0171918
0.0205867
0.0258882
0.0313644
0.0540433
0.00459759
0.00462239
0.00464959
0.00467912
0.00471349
0.00475447
0.00480388
0.0048636
0.00493568
0.00502243
0.00512654
0.00525119
0.00540034
0.00557901
0.00579365
0.00605258
0.00636662
0.00674965
0.00721981
0.0078013
0.00852708
0.00944202
0.0106046
0.0120829
0.0139523
0.0163406
0.0196148
0.0243893
0.0299912
0.0500276
0.00452215
0.00453486
0.00454932
0.0045657
0.00458637
0.00461289
0.00464693
0.00469026
0.0047448
0.00481273
0.00489654
0.0049992
0.00512436
0.00527668
0.00546218
0.00568863
0.00596611
0.00630774
0.00673086
0.00725912
0.00792538
0.00877512
0.00986896
0.0112804
0.0130925
0.0154244
0.0185483
0.0228892
0.028471
0.0463647
0.00447994
0.00447927
0.00448035
0.00448329
0.00449025
0.0045026
0.00452186
0.00454967
0.00458779
0.00463823
0.00470332
0.00478585
0.00488924
0.00501783
0.00517717
0.0053744
0.00561884
0.00592264
0.00630215
0.00678006
0.00738838
0.00817196
0.00919147
0.0105225
0.0122511
0.0144861
0.0174229
0.0213714
0.026793
0.0429187
0.00447613
0.00446218
0.0044502
0.00444015
0.00443411
0.00443315
0.00443851
0.00445159
0.00447405
0.00450779
0.00455509
0.00461864
0.00470173
0.00480838
0.00494366
0.00511398
0.00532761
0.00559559
0.00593288
0.00636052
0.00690844
0.00761887
0.00854938
0.00977265
0.0113715
0.0134417
0.0161236
0.0196891
0.0248581
0.0397081
0.00450399
0.00448311
0.0044643
0.0044457
0.0044286
0.00441441
0.00440486
0.00440183
0.00440734
0.00442351
0.00445263
0.00449729
0.00456055
0.0046461
0.0047584
0.00490299
0.00508702
0.00532025
0.00561638
0.00599463
0.00648231
0.00711855
0.00795715
0.00906669
0.0105245
0.0124133
0.0148142
0.0179596
0.0227489
0.03681
0.0340861
0.0316165
0.0287789
0.0258724
0.0229696
0.0200795
0.0172684
0.0145985
0.0121198
0.00987033
0.00787395
0.00614021
0.00466796
0.00344984
0.00247672
0.00174153
0.00124187
0.000981473
0.00096894
0.00121542
0.00173128
0.00252121
0.00357876
0.00488382
0.00640154
0.00808283
0.00986773
0.0117398
0.0136464
0.0153636
0.0207946
0.0194515
0.0180679
0.0164393
0.0147902
0.0131277
0.011493
0.0099244
0.00845057
0.00709307
0.00586546
0.00477422
0.00382032
0.00300118
0.00231245
0.00174974
0.00130983
0.000991247
0.00079485
0.000723268
0.000779467
0.000965052
0.00127886
0.00171409
0.00225722
0.00288604
0.00357298
0.00430178
0.00493137
0.00556508
0.0165448
0.0155132
0.0144593
0.0131578
0.0118494
0.0105494
0.00928904
0.00809255
0.00697514
0.00594671
0.00501291
0.00417599
0.00343562
0.00278961
0.00223466
0.00176704
0.00138335
0.001081
0.000858587
0.000716174
0.000655296
0.000678866
0.00079064
0.00099407
0.00129053
0.00167652
0.00214116
0.00266963
0.0031636
0.003648
0.0138166
0.0130459
0.01225
0.0112126
0.0101677
0.00912479
0.00810858
0.00713808
0.00622454
0.00537545
0.00459557
0.00388766
0.00325296
0.00269138
0.00220179
0.00178228
0.00143059
0.00114443
0.000921863
0.000761688
0.000663958
0.000630425
0.000664601
0.000770886
0.000952481
0.00120784
0.00152742
0.00189634
0.00221749
0.00252433
0.0116508
0.0110348
0.0103949
0.00958181
0.00877505
0.00796799
0.00717319
0.0064012
0.00565979
0.00495587
0.00429544
0.00368363
0.00312464
0.00262151
0.00217608
0.00178892
0.00145951
0.00118647
0.000967896
0.000801776
0.000686629
0.000622052
0.000608937
0.000648952
0.000743199
0.000890278
0.00108463
0.00131959
0.00153007
0.00173496
0.00991529
0.00942071
0.00889879
0.0082612
0.00763957
0.00701879
0.00640044
0.00578846
0.00518719
0.00460235
0.00404046
0.00350825
0.00301211
0.00255761
0.00214899
0.00178896
0.00147866
0.00121774
0.00100474
0.000837552
0.000713941
0.000632009
0.000590362
0.00058785
0.000623105
0.000694139
0.000798107
0.000933528
0.00106317
0.00119176
0.00857292
0.00817398
0.00774498
0.00723905
0.00675115
0.00626541
0.00577677
0.00528509
0.00479185
0.00430116
0.00381911
0.0033529
0.00291006
0.00249764
0.00212152
0.00178597
0.00149341
0.00124451
0.00103847
0.000873441
0.000746957
0.000656256
0.000598397
0.000570269
0.000568749
0.000591168
0.000635815
0.000702805
0.000773806
0.000847506
0.00754996
0.00722422
0.00686702
0.00645763
0.00606478
0.00567401
0.00527832
0.00487489
0.00446318
0.00404573
0.00362763
0.00321583
0.00281812
0.00244227
0.00209513
0.00178197
0.00150621
0.00126937
0.00107128
0.000910466
0.000784461
0.000690029
0.000623352
0.000580265
0.000556743
0.000549704
0.000557417
0.000579892
0.000610198
0.000645444
0.00677448
0.00650238
0.00619794
0.00585778
0.00553235
0.00520856
0.00487946
0.00454057
0.00419017
0.00382946
0.00346246
0.0030954
0.00273587
0.0023918
0.00207047
0.00177779
0.00151785
0.00129281
0.00110306
0.000947471
0.000823657
0.000728199
0.00065691
0.000605226
0.000568817
0.000544312
0.000529776
0.000524498
0.000527674
0.000537881
0.00618404
0.00595007
0.00568454
0.00539419
0.00511661
0.00484055
0.00455924
0.00426767
0.0039634
0.00364662
0.00332035
0.00299001
0.0026627
0.00234616
0.00204776
0.00177369
0.00152844
0.00131464
0.00113311
0.000983002
0.000862074
0.000766934
0.000693349
0.000636728
0.00059274
0.000557873
0.000529937
0.000507648
0.000493291
0.000488265
0.00573072
0.0055241
0.00528749
0.00503296
0.00478989
0.00454812
0.00430148
0.0040448
0.00377527
0.00349243
0.00319852
0.00289821
0.00259799
0.0023052
0.00202703
0.00176971
0.00153791
0.00133456
0.00116076
0.00101593
0.000898005
0.000803753
0.000729083
0.000669558
0.000620988
0.000579809
0.000543641
0.000510849
0.000485344
0.000471326
0.00537949
0.00519322
0.0049785
0.00475057
0.00453245
0.00431542
0.004094
0.00386309
0.00361968
0.00336295
0.0030946
0.0028187
0.00254113
0.0022687
0.00200824
0.00176582
0.00154614
0.00135228
0.00118552
0.00104551
0.000930402
0.000837175
0.000761987
0.000700637
0.000649115
0.000603906
0.000562434
0.00052314
0.000490562
0.000471386
0.00510584
0.00493489
0.00473715
0.00452932
0.00432953
0.00413068
0.00392758
0.00371557
0.00349163
0.00325482
0.00300653
0.00275036
0.0024916
0.00223647
0.00199134
0.00176201
0.00155308
0.00136764
0.00120713
0.00107136
0.000958712
0.000866405
0.000790872
0.000728197
0.000674551
0.000626488
0.000581561
0.000538248
0.000501271
0.00047941
0.00489242
0.00473329
0.00454908
0.00435678
0.00417076
0.00398506
0.00379507
0.00359664
0.00338693
0.00316515
0.0029325
0.00269218
0.00244891
0.00220832
0.0019763
0.00175828
0.0015587
0.00138061
0.00122552
0.00109336
0.00098274
0.000891096
0.000815132
0.000751237
0.000695809
0.000645649
0.000598453
0.000552725
0.000513166
0.000490274
0.00472658
0.00457697
0.00440383
0.00422359
0.0040478
0.00387157
0.00369061
0.00350162
0.00330213
0.00309153
0.00287097
0.00264327
0.00241262
0.00218409
0.00196308
0.00175468
0.00156309
0.00139129
0.00124077
0.0011116
0.00100253
0.000911205
0.00083461
0.000769435
0.000712365
0.00066058
0.000611857
0.00056478
0.000523913
0.000501074
0.00459917
0.00445733
0.0042933
0.00412241
0.0039541
0.0037844
0.00360941
0.00342666
0.00323434
0.00303196
0.00282063
0.00260283
0.00238229
0.00216359
0.00195167
0.00175128
0.00156639
0.00139983
0.00125308
0.00112627
0.00101825
0.000926892
0.000849424
0.000782841
0.000724231
0.0006711
0.00062133
0.000573607
0.000532281
0.00051014
0.00450339
0.00436781
0.0042111
0.00404739
0.00388428
0.00371873
0.00354761
0.00336872
0.00318125
0.00298478
0.00278031
0.0025701
0.00235747
0.0021466
0.00194203
0.00174818
0.00156876
0.00140645
0.00126268
0.00113758
0.00103014
0.000938406
0.000859853
0.000791795
0.000731705
0.000677406
0.000626903
0.000578972
0.000537695
0.000516494
0.00443395
0.00430326
0.00415227
0.00399386
0.00383423
0.00367112
0.00350221
0.00332556
0.00314109
0.00294862
0.00274902
0.00254437
0.00233773
0.00213292
0.00193413
0.00174545
0.00157034
0.00141133
0.00126977
0.00114579
0.00103847
0.000946032
0.000866239
0.000796708
0.000735181
0.000679843
0.000628797
0.0005809
0.000539926
0.000519591
0.00438655
0.00425959
0.00411305
0.00395844
0.00380091
0.00363902
0.00347109
0.00329552
0.00311251
0.00292238
0.0027259
0.00252505
0.00232269
0.00212236
0.00192792
0.00174315
0.00157128
0.00141466
0.00127456
0.0011511
0.00104345
0.000950029
0.000868859
0.00079784
0.000734991
0.000678729
0.000627232
0.000579495
0.000538931
0.000519214
0.00435764
0.00423355
0.00409053
0.00393871
0.00378231
0.00362069
0.00345272
0.00327735
0.00309447
0.0029052
0.00271029
0.00251165
0.00231204
0.00211474
0.00192333
0.00174131
0.00157165
0.00141655
0.00127717
0.00115365
0.00104526
0.000950592
0.000867933
0.000795439
0.000731352
0.000674167
0.000622405
0.000574919
0.000534808
0.000515397
0.0043443
0.00422261
0.00408248
0.00393281
0.00377702
0.00361499
0.00344619
0.00327007
0.00308622
0.00289644
0.00270168
0.00250381
0.00230553
0.00210992
0.00192033
0.00173994
0.00157152
0.00141708
0.0012777
0.00115355
0.001044
0.000947845
0.000863589
0.000789631
0.000724424
0.00066651
0.000614567
0.000567403
0.000527771
0.000508325
0.00434402
0.00422471
0.0040872
0.00393935
0.00378398
0.00362109
0.00345078
0.003273
0.00308726
0.00289568
0.00269975
0.00250132
0.00230303
0.00210785
0.00191887
0.00173904
0.00157089
0.00141626
0.00127618
0.00115084
0.00103973
0.000941848
0.000855913
0.000780523
0.00071434
0.000655882
0.000603915
0.000557208
0.000518108
0.000498315
0.00435449
0.00423798
0.00410316
0.00395714
0.00380219
0.0036384
0.00346599
0.00328563
0.00309725
0.00290268
0.00270436
0.00250409
0.00230451
0.0021085
0.00191895
0.00173859
0.00156972
0.00141407
0.00127259
0.00114551
0.00103246
0.000932642
0.000844969
0.000768227
0.000701158
0.000642431
0.000590707
0.000544604
0.000506155
0.000485743
0.00437344
0.00426054
0.00412896
0.0039851
0.00383078
0.00366609
0.00349133
0.00330769
0.00311597
0.00291742
0.00271556
0.00251224
0.00231009
0.00211196
0.0019206
0.00173854
0.00156794
0.00141039
0.00126682
0.00113749
0.00102218
0.000920259
0.000830838
0.000752844
0.000685081
0.000626346
0.000575071
0.000529884
0.000492276
0.000471058
0.00439857
0.00429049
0.00416319
0.00402224
0.00386911
0.00370356
0.00352636
0.00333905
0.00314333
0.0029401
0.00273362
0.00252607