/*--------------------------------*- C++ -*----------------------------------*\
  =========                 |
  \\      /  F ield         | OpenFOAM: The Open Source CFD Toolbox
   \\    /   O peration     | Website:  https://openfoam.org
    \\  /    A nd           | Version:  12
     \\/     M anipulation  |
\*---------------------------------------------------------------------------*/
FoamFile
{
    format      ascii;
    class       volVectorField;
    location    "280";
    object      U;
}
// * * * * * * * * * * * * * * * * * * * * * * * * * * * * * * * * * * * * * //

dimensions      [0 1 -1 0 0 0 0];

internalField   nonuniform List<vector> 
6750
(
(0.200065 -0.00312059 0)
(0.200334 -0.00958861 0)
(0.200601 -0.0155816 0)
(0.200832 -0.0211569 0)
(0.200689 -0.0263971 0)
(0.200037 -0.0034782 0)
(0.200271 -0.0101449 0)
(0.200458 -0.0160525 0)
(0.200516 -0.0213268 0)
(0.200374 -0.0260404 0)
(0.200026 -0.00363732 0)
(0.200122 -0.0103569 0)
(0.200123 -0.0161214 0)
(0.19998 -0.0210921 0)
(0.19971 -0.0253524 0)
(0.20001 -0.00366807 0)
(0.199953 -0.0102923 0)
(0.199761 -0.0158486 0)
(0.199437 -0.0205372 0)
(0.199037 -0.0244794 0)
(0.199996 -0.00359783 0)
(0.199798 -0.00999874 0)
(0.199422 -0.0152924 0)
(0.198921 -0.0197076 0)
(0.198376 -0.0233927 0)
(0.199984 -0.00344432 0)
(0.199656 -0.00951137 0)
(0.199104 -0.0144867 0)
(0.198422 -0.0186129 0)
(0.197713 -0.0220486 0)
(0.199974 -0.00322203 0)
(0.199524 -0.00885772 0)
(0.198799 -0.0134566 0)
(0.197931 -0.0172615 0)
(0.197044 -0.02043 0)
(0.199965 -0.00294202 0)
(0.199398 -0.00806056 0)
(0.198505 -0.0122256 0)
(0.197451 -0.0156696 0)
(0.196378 -0.0185415 0)
(0.199956 -0.00261386 0)
(0.199281 -0.00714235 0)
(0.198228 -0.0108214 0)
(0.196995 -0.0138648 0)
(0.195739 -0.0164074 0)
(0.199949 -0.00224729 0)
(0.199175 -0.00612763 0)
(0.197976 -0.00927759 0)
(0.196579 -0.0118855 0)
(0.195152 -0.0140687 0)
(0.199943 -0.00185263 0)
(0.199084 -0.00504309 0)
(0.197758 -0.00763255 0)
(0.196219 -0.00977842 0)
(0.194641 -0.0115781 0)
(0.199938 -0.0014405 0)
(0.199011 -0.00391636 0)
(0.197583 -0.00592675 0)
(0.195927 -0.00759395 0)
(0.194226 -0.00899411 0)
(0.199935 -0.00102121 0)
(0.198957 -0.00277431 0)
(0.197453 -0.00419988 0)
(0.195712 -0.00538202 0)
(0.193918 -0.00637563 0)
(0.199931 -0.000603966 0)
(0.198926 -0.00164165 0)
(0.197371 -0.00248796 0)
(0.195574 -0.00318821 0)
(0.19372 -0.00377693 0)
(0.199921 -0.000200503 0)
(0.198921 -0.000537888 0)
(0.197334 -0.000819612 0)
(0.19551 -0.00105056 0)
(0.193626 -0.00124452 0)
(0.199921 0.000200338 0)
(0.198921 0.000537476 0)
(0.197334 0.000819028 0)
(0.19551 0.00104986 0)
(0.193626 0.00124374 0)
(0.199931 0.000603802 0)
(0.198926 0.00164124 0)
(0.197371 0.00248738 0)
(0.195574 0.00318752 0)
(0.19372 0.00377616 0)
(0.199935 0.00102104 0)
(0.198957 0.0027739 0)
(0.197453 0.0041993 0)
(0.195712 0.00538133 0)
(0.193918 0.00637486 0)
(0.199938 0.00144033 0)
(0.199011 0.00391596 0)
(0.197583 0.00592618 0)
(0.195927 0.00759327 0)
(0.194226 0.00899335 0)
(0.199943 0.00185247 0)
(0.199084 0.00504269 0)
(0.197758 0.00763198 0)
(0.196219 0.00977774 0)
(0.194641 0.0115773 0)
(0.199949 0.00224713 0)
(0.199175 0.00612723 0)
(0.197976 0.00927703 0)
(0.196579 0.0118848 0)
(0.195152 0.0140679 0)
(0.199956 0.0026137 0)
(0.199281 0.00714196 0)
(0.198227 0.0108208 0)
(0.196995 0.0138641 0)
(0.195739 0.0164066 0)
(0.199965 0.00294186 0)
(0.199398 0.00806018 0)
(0.198505 0.0122251 0)
(0.197451 0.015669 0)
(0.196378 0.0185408 0)
(0.199974 0.00322188 0)
(0.199524 0.00885735 0)
(0.198799 0.0134561 0)
(0.197931 0.0172609 0)
(0.197044 0.0204293 0)
(0.199984 0.00344418 0)
(0.199656 0.00951101 0)
(0.199104 0.0144862 0)
(0.198422 0.0186123 0)
(0.197713 0.0220479 0)
(0.199996 0.00359769 0)
(0.199798 0.0099984 0)
(0.199422 0.0152919 0)
(0.198921 0.0197071 0)
(0.198376 0.0233921 0)
(0.20001 0.00366793 0)
(0.199953 0.010292 0)
(0.199761 0.0158481 0)
(0.199437 0.0205366 0)
(0.199037 0.0244788 0)
(0.200026 0.0036372 0)
(0.200122 0.0103566 0)
(0.200123 0.0161209 0)
(0.19998 0.0210916 0)
(0.19971 0.0253518 0)
(0.200037 0.00347808 0)
(0.200271 0.0101446 0)
(0.200458 0.0160521 0)
(0.200516 0.0213263 0)
(0.200373 0.0260399 0)
(0.200065 0.0031205 0)
(0.200334 0.00958837 0)
(0.200601 0.0155813 0)
(0.200831 0.0211565 0)
(0.200689 0.0263967 0)
(0.19851 -0.0381712 0)
(0.196771 -0.0437665 0)
(0.19529 -0.0488913 0)
(0.194259 -0.0534925 2.81558e-22)
(0.193531 -0.0574581 0)
(0.193048 -0.0607273 0)
(0.192799 -0.0632337 -1.92751e-20)
(0.192771 -0.0648819 1.94452e-20)
(0.192944 -0.0655548 1.57873e-22)
(0.193246 -0.0651977 1.01093e-20)
(0.19365 -0.0636827 1.92551e-23)
(0.194077 -0.0608566 -1.25509e-23)
(0.194448 -0.0567895 -5.20564e-21)
(0.194679 -0.0515506 -5.16611e-21)
(0.194696 -0.0452836 -1.20631e-20)
(0.194444 -0.0381984 1.20674e-20)
(0.193893 -0.0305544 -4.84301e-21)
(0.193043 -0.0226326 -4.49469e-21)
(0.191924 -0.0147143 3.11584e-22)
(0.190583 -0.00705499 3.53676e-22)
(0.189075 0.000134983 8.63172e-21)
(0.187473 0.00674088 -1.27193e-22)
(0.185861 0.012639 1.47754e-20)
(0.184299 0.0177725 -1.46448e-20)
(0.182838 0.0221307 0)
(0.181518 0.0257345 0)
(0.18037 0.0286249 -1.85999e-22)
(0.179419 0.0308546 0)
(0.178684 0.0324788 0)
(0.178159 0.0335228 0)
(0.197622 -0.0415327 0)
(0.196045 -0.0470378 0)
(0.194851 -0.0517298 0)
(0.194008 -0.05582 -2.66113e-22)
(0.193399 -0.0592948 0)
(0.19301 -0.0621139 0)
(0.19284 -0.0642062 1.91928e-20)
(0.192875 -0.0654745 -1.96542e-20)
(0.19309 -0.0658102 -1.48594e-22)
(0.193416 -0.0651812 0)
(0.193825 -0.0634224 0)
(0.194232 -0.0604517 -9.55919e-21)
(0.194569 -0.0563324 9.58929e-21)
(0.194758 -0.0511354 0)
(0.194732 -0.0449975 -3.21756e-20)
(0.194442 -0.0381125 3.21758e-20)
(0.193865 -0.0307148 0)
(0.193004 -0.0230596 8.70308e-21)
(0.191885 -0.0153988 -8.74731e-21)
(0.190555 -0.00796304 0)
(0.189072 -0.000942664 0)
(0.1875 0.00554153 1.19325e-22)
(0.185904 0.0113801 -1.41853e-20)
(0.184349 0.0165154 1.42922e-20)
(0.182883 0.0209289 0)
(0.181545 0.0246321 0)
(0.180363 0.0276574 1.75153e-22)
(0.179358 0.0300502 0)
(0.178556 0.0318688 0)
(0.177964 0.033189 0)
(0.196785 -0.0441218 0)
(0.195527 -0.0491165 0)
(0.194514 -0.05339 0)
(0.193763 -0.0571465 1.95871e-20)
(0.193228 -0.0603391 -1.98045e-20)
(0.192911 -0.0629042 2.06765e-20)
(0.192808 -0.0647589 -2.08708e-20)
(0.1929 -0.0658052 3.21577e-22)
(0.193159 -0.065943 0)
(0.193516 -0.065147 0)
(0.193941 -0.063231 -3.21013e-22)
(0.194342 -0.0601657 0)
(0.194657 -0.0560022 0)
(0.194808 -0.0508141 -7.59968e-23)
(0.19473 -0.0447359 -5.29652e-20)
(0.19438 -0.0379542 5.29656e-20)
(0.193738 -0.0306922 7.03267e-23)
(0.192812 -0.0231898 0)
(0.191633 -0.0156836 0)
(0.190249 -0.00838787 2.5477e-22)
(0.188719 -0.00148007 0)
(0.187107 0.004904 0)
(0.185478 0.010678 -2.36344e-22)
(0.183891 0.0157855 -1.37726e-20)
(0.182393 0.0202051 1.36443e-20)
(0.181021 0.023944 -1.26545e-20)
(0.1798 0.027029 1.24969e-20)
(0.178748 0.029498 0)
(0.177895 0.031409 0)
(0.177318 0.0329063 0)
(0.196046 -0.0464486 0)
(0.195012 -0.0510236 -4.24075e-20)
(0.194103 -0.0549626 2.13828e-20)
(0.193421 -0.0584267 4.44413e-20)
(0.192956 -0.0613506 -4.49793e-20)
(0.192708 -0.0636627 2.23732e-20)
(0.192666 -0.0652777 0)
(0.192817 -0.0661 7.0246e-22)
(0.193111 -0.0660469 0)
(0.193508 -0.0650737 0)
(0.193948 -0.0630052 1.1389e-20)
(0.19435 -0.0598479 -1.07632e-20)
(0.194646 -0.0556412 0)
(0.194757 -0.0504623 7.97867e-23)
(0.19462 -0.0444438 -7.33435e-20)
(0.194194 -0.0377653 7.3344e-20)
(0.193464 -0.0306391 -7.38337e-23)
(0.192443 -0.0232916 0)
(0.191165 -0.0159445 -8.50718e-21)
(0.189684 -0.0087983 7.94726e-21)
(0.188062 -0.0020198 2.4319e-22)
(0.186367 0.00426395 0)
(0.184664 0.00996755 -4.45345e-22)
(0.18301 0.0150385 0)
(0.181452 0.0194555 1.30135e-20)
(0.180027 0.0232231 -2.47982e-20)
(0.178755 0.0263634 2.34389e-20)
(0.177651 0.0289074 1.05187e-20)
(0.176745 0.0309089 -2.17188e-20)
(0.176204 0.0325833 0)
(0.195288 -0.0486647 0)
(0.194389 -0.0528754 4.75949e-20)
(0.193562 -0.0565022 -4.677e-20)
(0.192952 -0.0596781 0)
(0.192557 -0.0623331 0)
(0.192372 -0.0643918 7.61534e-22)
(0.192389 -0.0657675 0)
(0.192592 -0.0663656 -7.36021e-22)
(0.192925 -0.0661253 1.16209e-20)
(0.193356 -0.0649665 -1.17806e-20)
(0.19381 -0.0627497 -1.16393e-20)
(0.19421 -0.0594958 1.13377e-20)
(0.194482 -0.0552406 3.38411e-22)
(0.194546 -0.0500643 -1.63367e-22)
(0.194342 -0.0440978 -9.33308e-20)
(0.19383 -0.0375151 9.33313e-20)
(0.192999 -0.0305188 1.44595e-22)
(0.191864 -0.0233229 -2.76741e-22)
(0.190466 -0.0161356 8.50321e-21)
(0.188864 -0.00914431 -8.19616e-21)
(0.187125 -0.00250476 -8.05677e-21)
(0.185319 0.0036647 7.74627e-21)
(0.183513 0.00928267 4.6672e-22)
(0.181766 0.0143002 0)
(0.180126 0.0186969 -4.02524e-22)
(0.178627 0.022476 0)
(0.177292 0.0256562 0)
(0.176126 0.0282627 -2.22935e-20)
(0.175162 0.0303434 2.13209e-20)
(0.174648 0.0321858 0)
(0.194434 -0.0507716 4.89845e-20)
(0.19362 -0.0546342 -7.70044e-20)
(0.192868 -0.0579614 2.53714e-20)
(0.192329 -0.0608603 0)
(0.191999 -0.0632564 2.56572e-20)
(0.191875 -0.0650702 -2.51258e-20)
(0.191947 -0.0662141 2.47148e-20)
(0.192199 -0.0665964 -2.56081e-20)
(0.192568 -0.0661716 0)
(0.193027 -0.0648254 -7.74187e-22)
(0.193488 -0.0624639 1.18597e-20)
(0.19388 -0.0591096 -6.17062e-21)
(0.194122 -0.0547992 -9.29947e-22)
(0.194134 -0.0496154 -5.39261e-21)
(0.193855 -0.0436887 -1.12955e-19)
(0.19325 -0.0371885 1.12951e-19)
(0.192308 -0.0303094 -4.82315e-21)
(0.191051 -0.023255 7.7117e-22)
(0.189523 -0.0162213 -4.06525e-21)
(0.187788 -0.00938388 8.46259e-21)
(0.185917 -0.0028877 4.80387e-22)
(0.183984 0.00315706 0)
(0.182059 0.00867483 -1.41421e-20)
(0.180202 0.0136208 1.44219e-20)
(0.178461 0.0179765 -1.32838e-20)
(0.176873 0.021745 1.2756e-20)
(0.175458 0.0249429 7.27123e-22)
(0.174222 0.0275909 1.12153e-20)
(0.173189 0.0297306 -3.27408e-20)
(0.172684 0.0317162 2.31101e-20)
(0.193439 -0.0527528 -2.56523e-20)
(0.192679 -0.0562812 2.89754e-20)
(0.191996 -0.059327 2.9019e-20)
(0.191522 -0.0619644 -2.94252e-20)
(0.191254 -0.0641136 2.75058e-20)
(0.191186 -0.0656919 -2.95588e-20)
(0.19131 -0.0666123 -8.84207e-22)
(0.191607 -0.0667876 0)
(0.192008 -0.0661779 1.30718e-20)
(0.192487 -0.0646453 3.728e-22)
(0.192951 -0.0621411 3.2218e-22)
(0.193327 -0.0586828 -1.28973e-20)
(0.193531 -0.0543102 -5.39067e-21)
(0.193483 -0.049109 8.52844e-21)
(0.193125 -0.0432097 -1.3469e-19)
(0.19242 -0.0367785 1.29444e-19)
(0.191365 -0.0300033 7.21019e-21)
(0.189982 -0.0230787 -5.28482e-21)
(0.188321 -0.0161906 -8.50015e-21)
(0.186449 -0.00950337 -1.2124e-22)
(0.184441 -0.00315228 -1.6324e-22)
(0.182374 0.00276073 7.61915e-21)
(0.180321 0.00816642 0)
(0.178343 0.0130246 3.8495e-22)
(0.176491 0.0173196 -1.19286e-20)
(0.174801 0.0210554 1.26052e-20)
(0.173296 0.0242478 -1.16868e-20)
(0.171977 0.0269143 1.07944e-20)
(0.170866 0.0290909 1.06803e-20)
(0.170349 0.0311884 -1.21024e-20)
(0.192265 -0.0546041 0)
(0.191538 -0.0578169 2.72332e-20)
(0.190918 -0.060601 -3.31669e-20)
(0.190505 -0.0629916 3.12451e-20)
(0.190294 -0.0649045 -2.98359e-20)
(0.19028 -0.0662555 2.73902e-20)
(0.190453 -0.0669587 -2.77388e-20)
(0.190784 -0.0669356 -1.80951e-21)
(0.191217 -0.0661338 -8.85689e-22)
(0.191707 -0.0644183 -8.63841e-22)
(0.192166 -0.0617721 -8.32606e-22)
(0.192519 -0.0582059 4.0141e-22)
(0.192678 -0.0537644 -6.35557e-21)
(0.192564 -0.0485368 3.15435e-21)
(0.192121 -0.0426541 -1.47634e-19)
(0.191316 -0.0362797 1.53007e-19)
(0.190146 -0.0295965 2.2441e-21)
(0.188639 -0.0227912 -4.18194e-21)
(0.186846 -0.0160404 2.65531e-22)
(0.184838 -0.00949904 1.02603e-21)
(0.182694 -0.00329304 4.7079e-22)
(0.180493 0.00248361 4.4529e-22)
(0.17831 0.00776806 8.45245e-22)
(0.176208 0.012525 -1.39673e-20)
(0.174238 0.0167421 1.37207e-20)
(0.17244 0.0204251 -1.20096e-20)
(0.170834 0.0235898 1.10911e-20)
(0.169423 0.0262522 -9.69391e-21)
(0.168226 0.0284439 1.16033e-20)
(0.167674 0.03062 0)
(0.190877 -0.0563267 0)
(0.19017 -0.0592438 1.97758e-21)
(0.189608 -0.0617842 -2.74124e-20)
(0.189252 -0.0639409 4.15397e-22)
(0.189094 -0.0656265 3.19044e-20)
(0.18913 -0.0667566 1.94967e-21)
(0.189349 -0.0672459 1.95021e-21)
(0.189704 -0.0670312 -1.30458e-20)
(0.190164 -0.0660309 1.61206e-20)
(0.190658 -0.0641383 -4.95943e-24)
(0.191107 -0.0613471 -6.82868e-21)
(0.191428 -0.0576686 6.86969e-21)
(0.191535 -0.0531522 -2.69474e-21)
(0.191351 -0.0478905 3.10415e-21)
(0.190821 -0.0420151 -1.68436e-19)
(0.189914 -0.0356876 1.68435e-19)
(0.188631 -0.0290861 2.4089e-21)
(0.187002 -0.0223907 -2.69821e-21)
(0.185082 -0.0157697 3.94507e-21)
(0.182944 -0.00936936 -5.21638e-21)
(0.180669 -0.00330715 -2.92534e-23)
(0.178338 0.00233051 7.04046e-21)
(0.176028 0.00748706 -7.88349e-21)
(0.173803 0.0121322 -7.83707e-22)
(0.171715 0.016257 -8.03559e-22)
(0.169805 0.0198696 1.17277e-20)
(0.168095 0.0229866 -3.29903e-22)
(0.166586 0.0256234 -1.24083e-20)
(0.165298 0.0278094 0)
(0.16469 0.0300311 0)
(0.18924 -0.0579231 0)
(0.188546 -0.060563 -3.5307e-20)
(0.188037 -0.0628751 4.09935e-22)
(0.187735 -0.0648087 5.2214e-22)
(0.187627 -0.0662743 6.52894e-20)
(0.187709 -0.0671888 -3.38659e-20)
(0.187968 -0.0674691 -2.0381e-21)
(0.188348 -0.0670623 0)
(0.188825 -0.065861 1.44529e-20)
(0.189316 -0.0637931 -1.46568e-20)
(0.189746 -0.0608547 7.13916e-21)
(0.190029 -0.0570604 -3.99113e-22)
(0.190078 -0.0524641 -6.8179e-21)
(0.18982 -0.0471619 1.92731e-22)
(0.1892 -0.0412866 -1.85737e-19)
(0.188192 -0.0349979 1.85819e-19)
(0.186799 -0.0284699 -1.54236e-22)
(0.185054 -0.0218764 -4.50965e-21)
(0.183014 -0.0153786 2.93439e-22)
(0.180754 -0.00911457 5.1756e-21)
(0.178357 -0.00319407 -7.81594e-21)
(0.175904 0.00230356 7.23157e-21)
(0.173474 0.00732778 0)
(0.17113 0.011853 8.19108e-22)
(0.168928 0.0158743 -1.18514e-20)
(0.166908 0.0194019 2.37218e-20)
(0.165092 0.0224538 -3.06602e-22)
(0.163483 0.0250458 5.56182e-22)
(0.162098 0.0272068 -1.03802e-20)
(0.161419 0.0294428 0)
(0.187323 -0.059395 -4.54792e-21)
(0.186638 -0.0617746 0)
(0.18618 -0.0638708 -2.22033e-21)
(0.185928 -0.0655898 3.33779e-20)
(0.185868 -0.0668413 -3.62813e-20)
(0.185993 -0.0675443 3.50797e-20)
(0.186284 -0.0676207 -3.53793e-20)
(0.186688 -0.0670159 -1.67091e-20)
(0.187173 -0.0656129 3.53348e-20)
(0.187655 -0.0633709 2.11305e-22)
(0.188059 -0.0602835 -1.48075e-20)
(0.188297 -0.0563702 7.05196e-21)
(0.188284 -0.0516904 -3.7766e-21)
(0.187948 -0.0463433 -5.06881e-21)
(0.187238 -0.0404627 -2.00824e-19)
(0.186131 -0.0342069 2.03599e-19)
(0.184632 -0.0277461 -3.60163e-21)
(0.182778 -0.0212486 -2.06611e-21)
(0.180627 -0.0148685 4.47656e-21)
(0.178255 -0.00873657 -8.67935e-21)
(0.175745 -0.0029554 3.07754e-23)
(0.173181 0.00240226 1.29091e-20)
(0.17064 0.00729149 -6.61196e-21)
(0.168187 0.0116913 -1.19226e-20)
(0.165877 0.0156003 1.17575e-20)
(0.16375 0.0190314 -1.09317e-20)
(0.161831 0.0220039 1.13204e-20)
(0.160121 0.0245345 -6.00175e-22)
(0.158641 0.0266534 0)
(0.157879 0.0288754 1.43097e-21)
(0.185093 -0.0607436 4.72988e-21)
(0.184415 -0.0628771 -4.01024e-20)
(0.184007 -0.0647668 3.84398e-20)
(0.183805 -0.0662778 2.36796e-21)
(0.18379 -0.0673192 2.35896e-21)
(0.183957 -0.067812 0)
(0.184268 -0.0676891 -2.30882e-21)
(0.184695 -0.0668782 -1.99104e-20)
(0.185181 -0.0652761 3.39201e-20)
(0.185649 -0.0628592 -1.83227e-20)
(0.186021 -0.059621 -1.00326e-21)
(0.186209 -0.0555869 7.31992e-21)
(0.18613 -0.0508213 -7.35926e-21)
(0.185715 -0.0454266 -2.04344e-22)
(0.184916 -0.0395377 -2.17937e-19)
(0.183712 -0.0333113 2.1785e-19)
(0.182113 -0.0269138 1.5646e-22)
(0.180157 -0.0205081 -4.47325e-21)
(0.177905 -0.0142417 4.4494e-21)
(0.175432 -0.00823852 5.02924e-22)
(0.172821 -0.00259441 -6.45917e-21)
(0.170157 0.00262397 1.37092e-20)
(0.167516 0.00737691 -5.61736e-21)
(0.164964 0.0116477 6.85789e-22)
(0.162555 0.0154383 0)
(0.160329 0.018764 -6.83586e-22)
(0.158312 0.0216458 -6.53357e-22)
(0.156506 0.0241016 9.66233e-21)
(0.154932 0.0261635 -8.85248e-21)
(0.154079 0.0283474 -1.48821e-21)
(0.182516 -0.0619682 0)
(0.181848 -0.0638665 -5.62049e-23)
(0.181489 -0.0655564 4.02256e-20)
(0.181335 -0.0668635 -4.10051e-20)
(0.181364 -0.0676974 -3.97951e-20)
(0.181567 -0.0679813 6.21383e-20)
(0.181902 -0.0676588 -1.73295e-20)
(0.182344 -0.066636 -2.23729e-23)
(0.182826 -0.0648372 -2.30962e-21)
(0.183274 -0.0622442 0)
(0.183608 -0.0588543 -8.09621e-21)
(0.183742 -0.0546987 1.5745e-20)
(0.183594 -0.0498468 -7.63103e-21)
(0.183098 -0.0444041 2.13824e-22)
(0.182211 -0.0385061 -2.32569e-19)
(0.180915 -0.0323079 2.32657e-19)
(0.179223 -0.0259721 -1.63719e-22)
(0.177174 -0.0196561 -4.42784e-21)
(0.17483 -0.0135011 8.41065e-21)
(0.172268 -0.00762443 -3.97793e-21)
(0.16957 -0.00211559 0)
(0.166819 0.0029644 7.5038e-22)
(0.164091 0.00758065 -7.65891e-23)
(0.161451 0.0117204 -6.01928e-21)
(0.158953 0.0153884 1.46484e-20)
(0.156638 0.0186026 -9.85653e-21)
(0.15453 0.0213851 -9.09209e-21)
(0.152632 0.0237554 9.5021e-21)
(0.15097 0.0257483 -6.51939e-23)
(0.150022 0.027874 0)
(0.179558 -0.0630655 0)
(0.178904 -0.0647364 -3.97681e-20)
(0.178595 -0.0662301 4.33155e-20)
(0.178489 -0.0673359 3.97318e-20)
(0.178562 -0.0679634 -4.32606e-20)
(0.178797 -0.0680403 -2.31706e-20)
(0.179155 -0.0675124 8.25793e-22)
(0.179607 -0.0662746 2.29943e-20)
(0.18008 -0.0642804 4.83356e-21)
(0.180503 -0.061511 0)
(0.180795 -0.0579695 0)
(0.18087 -0.0536934 -6.83577e-21)
(0.180651 -0.0487567 8.3717e-21)
(0.180076 -0.0432679 0)
(0.179103 -0.0373625 -2.45993e-19)
(0.17772 -0.0311939 2.4599e-19)
(0.175942 -0.0249205 0)
(0.173809 -0.0186943 4.08001e-21)
(0.171386 -0.0126501 -4.82634e-21)
(0.168746 -0.00689905 0)
(0.165974 -0.00152445 0)
(0.16315 0.00341792 -1.48392e-21)
(0.160348 0.00789755 4.53301e-21)
(0.157633 0.0119052 -3.02885e-22)
(0.155059 0.0154484 -4.1691e-21)
(0.152665 0.0185469 -8.64391e-21)
(0.150474 0.021224 8.95979e-21)
(0.148494 0.023501 8.08511e-21)
(0.146748 0.0254156 -8.45376e-21)
(0.145706 0.0274671 0)
(0.176183 -0.06403 0)
(0.175549 -0.0654754 0)
(0.175291 -0.0667759 0)
(0.175236 -0.0676813 -4.20226e-20)
(0.175353 -0.0681011 2.05583e-20)
(0.175614 -0.0679733 2.51256e-20)
(0.175996 -0.0672297 2.72415e-21)
(0.176453 -0.0657784 2.05315e-20)
(0.176914 -0.0635888 -1.14578e-21)
(0.177309 -0.0606435 -1.99046e-20)
(0.177554 -0.0569521 -1.13447e-21)
(0.177569 -0.0525582 -2.11727e-21)
(0.177278 -0.0475406 -4.70181e-21)
(0.176623 -0.0420097 3.52173e-21)
(0.175568 -0.0361014 -2.57894e-19)
(0.174104 -0.0299663 2.57901e-19)
(0.172247 -0.0237586 2.56795e-21)
(0.170042 -0.0176245 -1.83822e-21)
(0.16755 -0.0116927 9.92691e-22)
(0.164847 -0.00606777 4.16339e-22)
(0.162014 -0.000827381 -5.88177e-21)
(0.159131 0.00397766 6.40081e-22)
(0.15627 0.00832087 5.18564e-21)
(0.153494 0.0121961 -5.13408e-22)
(0.150855 0.0156133 3.57003e-21)
(0.148394 0.0185937 4.04894e-21)
(0.146132 0.0211617 -7.92406e-21)
(0.144077 0.0233399 0)
(0.142255 0.0251692 0)
(0.141123 0.0271347 0)
(0.17235 -0.0648491 -4.77075e-20)
(0.171744 -0.0660708 5.02719e-20)
(0.171541 -0.0671788 0)
(0.171538 -0.0678829 -2.3647e-20)
(0.171699 -0.0680935 2.68974e-20)
(0.17199 -0.0677579 2.27593e-20)
(0.172393 -0.0667914 -2.90173e-20)
(0.172851 -0.0651288 0)
(0.173297 -0.0627438 -2.64418e-21)
(0.173659 -0.0596242 0)
(0.173856 -0.0557863 3.40271e-24)
(0.173808 -0.0512797 9.0993e-24)
(0.173445 -0.0461873 1.00362e-21)
(0.172713 -0.0406214 4.54462e-22)
(0.171581 -0.0347172 -2.68412e-19)
(0.170041 -0.0286223 2.68397e-19)
(0.168116 -0.0224863 -3.15991e-22)
(0.165848 -0.0164492 -5.50038e-22)
(0.1633 -0.0106332 -4.23349e-23)
(0.160548 -0.00513668 -4.51395e-23)
(0.157669 -3.17432e-05 0)
(0.154741 0.00463552 6.67573e-22)
(0.151835 0.00884229 0)
(0.149012 0.0125852 -2.76714e-21)
(0.146323 0.015876 3.76635e-21)
(0.143806 0.0187372 2.7021e-21)
(0.141484 0.0211941 -3.08805e-21)
(0.139364 0.0232702 0)
(0.137476 0.0250095 6.89774e-21)
(0.136259 0.0268806 -7.27296e-21)
(0.168017 -0.0655069 0)
(0.167448 -0.0665058 7.01886e-23)
(0.167306 -0.0674202 5.33393e-20)
(0.167359 -0.0679201 -5.10171e-20)
(0.167562 -0.06792 3.12485e-21)
(0.167887 -0.0673683 -6.12204e-21)
(0.168309 -0.0661758 2.98077e-21)
(0.168766 -0.0643032 0)
(0.169194 -0.0617243 0)
(0.169521 -0.0584337 0)
(0.169666 -0.054455 1.22669e-21)
(0.169554 -0.0498433 -7.47685e-21)
(0.16912 -0.0446851 1.20586e-20)
(0.168314 -0.0390941 -5.90085e-21)
(0.167109 -0.0332041 -2.74981e-19)
(0.165503 -0.0271593 2.78055e-19)
(0.163518 -0.0211036 -3.49331e-21)
(0.161199 -0.0151709 6.52849e-21)
(0.158609 -0.00947655 -4.39464e-21)
(0.155821 -0.00411274 -4.04509e-22)
(0.152911 0.000854012 -2.92988e-22)
(0.149954 0.00538202 0)
(0.147018 0.00945179 0)
(0.144163 0.0130623 -4.48418e-22)
(0.141437 0.0162269 6.87656e-22)
(0.138878 0.0189689 -2.51995e-22)
(0.136507 0.0213139 -4.39911e-21)
(0.134332 0.0232864 4.09358e-21)
(0.132387 0.0249329 1.02727e-22)
(0.131092 0.0267043 0)
(0.163138 -0.0659804 -5.26094e-20)
(0.162614 -0.0667602 4.87761e-20)
(0.162539 -0.0674762 2.30706e-20)
(0.162653 -0.0677664 -2.6842e-20)
(0.162901 -0.0675544 -2.87838e-20)
(0.163263 -0.0667743 2.95129e-20)
(0.1637 -0.0653585 2.4475e-20)
(0.164156 -0.0632764 -2.18888e-20)
(0.164564 -0.0605064 1.26017e-20)
(0.164852 -0.0570506 -1.13166e-20)
(0.164944 -0.0529393 1.09474e-20)
(0.164769 -0.0482331 -5.3613e-21)
(0.164265 -0.0430214 -3.93139e-21)
(0.163389 -0.0374186 2.31513e-22)
(0.162118 -0.0315564 -2.82676e-19)
(0.160453 -0.0255745 2.82655e-19)
(0.158419 -0.0196111 -1.45814e-22)
(0.156063 -0.013793 -2.10216e-21)
(0.153445 -0.0082288 -1.21506e-21)
(0.150636 -0.00300408 3.03077e-21)
(0.14771 0.00182 -1.70581e-21)
(0.14474 0.00620596 1.79029e-21)
(0.14179 0.0101374 -2.90016e-21)
(0.138917 0.0136151 2.5604e-21)
(0.136169 0.0166537 1.48106e-21)
(0.133581 0.019277 -1.47951e-21)
(0.131173 0.0215104 -1.31828e-21)
(0.128956 0.0233792 1.49573e-21)
(0.126963 0.0249317 4.55343e-21)
(0.125598 0.0266009 -4.35664e-21)
(0.15766 -0.0662425 -3.45782e-21)
(0.157188 -0.066807 -5.47871e-20)
(0.157188 -0.0673163 6.02675e-20)
(0.157369 -0.0673916 0)
(0.157668 -0.0669598 -3.46525e-21)
(0.158067 -0.0659456 0)
(0.15852 -0.0643079 -3.31492e-21)
(0.158973 -0.0620185 2.45194e-20)
(0.159359 -0.0590627 -2.64249e-20)
(0.159607 -0.0554502 1.41495e-21)
(0.159645 -0.051218 -2.61884e-21)
(0.159406 -0.0464313 -1.18877e-21)
(0.158835 -0.0411823 -5.41635e-22)
(0.157893 -0.0355849 -2.40304e-22)
(0.156563 -0.0297678 -2.85694e-19)
(0.154849 -0.0238657 2.85685e-19)
(0.152779 -0.01801 1.51351e-22)
(0.150398 -0.01232 2.50317e-22)
(0.147767 -0.00689717 -3.48545e-22)
(0.144954 -0.00182044 0)
(0.142029 0.00285439 -1.89246e-22)
(0.139062 0.00709388 -2.08861e-21)
(0.136115 0.0108843 2.38447e-21)
(0.13324 0.0142283 8.84503e-23)
(0.130484 0.017141 0)
(0.127881 0.0196462 -3.26373e-24)
(0.125449 0.021769 0)
(0.1232 0.0235348 7.73817e-22)
(0.12117 0.0249937 -7.06214e-22)
(0.119743 0.0265601 1.73804e-22)
(0.151517 -0.0662602 -5.44487e-20)
(0.151112 -0.0666057 5.72024e-20)
(0.151197 -0.0669002 9.66643e-23)
(0.151447 -0.0667571 3.21997e-20)
(0.151805 -0.066092 -5.41224e-20)
(0.152241 -0.0648446 3.25859e-20)
(0.152711 -0.062987 3.4123e-21)
(0.15316 -0.0604947 3.81613e-23)
(0.153522 -0.0573613 0)
(0.153728 -0.0536041 -1.46122e-21)
(0.153711 -0.0492665 -7.53269e-21)
(0.15341 -0.044418 1.15774e-20)
(0.152774 -0.0391523 5.38832e-22)
(0.151772 -0.033582 -1.52987e-21)
(0.150391 -0.027832 -2.83576e-19)
(0.148639 -0.0220308 2.86585e-19)
(0.146545 -0.0163022 -1.36098e-21)
(0.144155 -0.0107577 -2.0149e-22)
(0.141527 -0.00549081 2.64661e-21)
(0.138727 -0.000573928 -2.2599e-21)
(0.135822 0.00394258 1.95433e-22)
(0.132876 0.00802916 0)
(0.129948 0.0116746 1.67099e-22)
(0.127089 0.0148826 -9.10478e-23)
(0.12434 0.0176687 -3.48934e-22)
(0.121736 0.0200564 1.21394e-21)
(0.119294 0.0220699 -5.35367e-22)
(0.117025 0.0237344 1.57792e-22)
(0.114967 0.0251008 2.29086e-22)
(0.113488 0.0265655 -4.0983e-22)
(0.144635 -0.0659855 0)
(0.144314 -0.0661063 0)
(0.144489 -0.0661774 -3.38488e-20)
(0.144819 -0.0658081 2.73555e-20)
(0.145241 -0.0649027 0)
(0.145716 -0.0634248 -3.6654e-21)
(0.146203 -0.0613503 -3.61419e-21)
(0.146646 -0.0586626 -3.4078e-21)
(0.146981 -0.0553637 0)
(0.147143 -0.0514785 0)
(0.147071 -0.0470562 -1.38619e-21)
(0.146709 -0.0421699 5.28947e-21)
(0.146013 -0.0369137 -5.81357e-21)
(0.144958 -0.031398 -2.41352e-22)
(0.143535 -0.0257424 -2.81164e-19)
(0.141757 -0.0200684 2.8123e-19)
(0.139654 -0.0144913 1.35086e-22)
(0.137272 -0.00911394 -9.31562e-22)
(0.134666 -0.00402172 1.30085e-21)
(0.131898 0.000719917 0)
(0.129031 0.00506598 0)
(0.126125 0.00899064 0)
(0.123236 0.0124848 0)
(0.120409 0.0155533 -2.53947e-22)
(0.117686 0.0182113 -1.289e-22)
(0.115096 0.0204815 0)
(0.112657 0.0223868 -2.5327e-21)
(0.11038 0.023952 2.05852e-21)
(0.108306 0.0252279 0)
(0.106785 0.0265931 0)
(0.136922 -0.065354 -3.98743e-21)
(0.136702 -0.0652424 0)
(0.13698 -0.0650858 0)
(0.137401 -0.0644759 0)
(0.137888 -0.0633309 0)
(0.138404 -0.061625 0)
(0.138907 -0.0593405 3.69124e-21)
(0.139341 -0.0564696 1.7904e-21)
(0.139647 -0.0530229 -1.27768e-20)
(0.139765 -0.0490326 2.80715e-21)
(0.139636 -0.0445531 2.39981e-20)
(0.139214 -0.0396598 -1.61173e-20)
(0.138463 -0.0344465 7.02195e-22)
(0.137362 -0.0290196 4.09444e-21)
(0.135909 -0.0234926 -2.72139e-19)
(0.13412 -0.0179784 2.72096e-19)
(0.132025 -0.0125831 1.56719e-21)
(0.129669 -0.00740012 -5.56738e-22)
(0.127105 -0.00250617 -2.1744e-21)
(0.124391 0.00204044 1.43763e-21)
(0.121584 0.0062001 -6.04509e-22)
(0.11874 0.00995058 3.13106e-22)
(0.115909 0.0132847 1.90445e-22)
(0.113135 0.0162078 2.59358e-22)
(0.110455 0.0187345 0)
(0.107897 0.0208862 0)
(0.105476 0.0226841 0)
(0.103206 0.0241517 0)
(0.101127 0.0253395 0)
(0.0995725 0.0266081 -3.54997e-22)
(0.128268 -0.0642788 8.21376e-21)
(0.128168 -0.0639285 -3.27829e-20)
(0.128564 -0.0635318 3.40613e-20)
(0.129081 -0.0626755 0)
(0.129637 -0.0612941 -3.20332e-20)
(0.130194 -0.0593666 3.70206e-20)
(0.13071 -0.0568843 -3.1703e-20)
(0.131133 -0.053849 2.68225e-20)
(0.131406 -0.0502798 0)
(0.131475 -0.0462156 1.0403e-20)
(0.13129 -0.0417151 -2.88219e-21)
(0.130811 -0.0368551 -1.5606e-20)
(0.13001 -0.031727 5.31203e-21)
(0.128873 -0.0264323 1.64709e-21)
(0.127404 -0.0210765 -2.58906e-19)
(0.125619 -0.015763 2.56169e-19)
(0.123552 -0.0105874 9.52796e-22)
(0.121245 -0.0056328 5.63336e-22)
(0.118746 -0.000966973 -1.09673e-21)
(0.116109 0.00335922 9.67095e-22)
(0.113387 0.00731159 -5.15558e-22)
(0.110629 0.0108714 -2.4988e-22)
(0.107881 0.014033 -4.90034e-21)
(0.105183 0.0168018 3.92506e-21)
(0.102566 0.0191918 -4.66581e-21)
(0.100059 0.0212222 5.29902e-21)
(0.0976741 0.0229122 0)
(0.0954249 0.0242835 -5.60578e-21)
(0.0933535 0.0253855 5.42741e-21)
(0.0917776 0.0265605 9.56989e-22)
(0.118532 -0.0626366 2.61917e-20)
(0.118573 -0.0620403 -3.40972e-20)
(0.119098 -0.0613919 -3.00709e-20)
(0.119716 -0.0602923 3.57351e-20)
(0.120342 -0.0586805 3.75651e-20)
(0.120937 -0.0565442 -7.46176e-20)
(0.121462 -0.0538848 5.2313e-20)
(0.121867 -0.0507139 -1.38526e-20)
(0.122102 -0.0470585 0)
(0.122119 -0.0429635 -1.21328e-20)
(0.121878 -0.0384905 1.09124e-20)
(0.121345 -0.0337161 -6.25841e-22)
(0.120502 -0.0287279 -1.94648e-21)
(0.119341 -0.0236204 2.74052e-21)
(0.117871 -0.0184898 -2.35968e-19)
(0.116112 -0.0134283 2.3477e-19)
(0.114096 -0.00851998 8.64031e-22)
(0.111863 -0.00383693 -4.58985e-22)
(0.109458 0.000562738 -3.10275e-23)
(0.106927 0.00463578 -1.68697e-21)
(0.104319 0.00835344 1.70268e-21)
(0.101676 0.0117002 6.42275e-22)
(0.0990385 0.0146718 3.59346e-21)
(0.0964412 0.0172734 -9.53733e-21)
(0.0939137 0.0195176 1.27962e-20)
(0.0914794 0.0214212 -6.30627e-21)
(0.0891514 0.0230008 -8.03676e-21)
(0.0869417 0.0242759 7.77955e-21)
(0.0848935 0.0252935 6.50273e-21)
(0.0833081 0.0263773 -8.11022e-21)
(0.107529 -0.0602462 4.09283e-20)
(0.107735 -0.0593935 4.80967e-21)
(0.108394 -0.0584971 -5.72887e-21)
(0.109112 -0.0571609 -3.7192e-20)
(0.109804 -0.0553335 -4.35223e-21)
(0.11043 -0.0530127 6.40135e-21)
(0.110955 -0.0502106 5.73812e-23)
(0.111334 -0.0469478 0)
(0.111524 -0.0432588 0)
(0.111486 -0.0391929 -1.21752e-20)
(0.111187 -0.0348132 1.38591e-20)
(0.110606 -0.0301939 6.30303e-22)
(0.109731 -0.025417 0)
(0.108563 -0.020568 5.20136e-22)
(0.107114 -0.0157317 -2.05733e-19)
(0.105406 -0.0109878 2.04663e-19)
(0.10347 -0.00640758 3.43893e-22)
(0.101343 -0.00205123 0)
(0.0990643 0.00203322 3.12486e-23)
(0.0966755 0.0058104 -2.35818e-21)
(0.0942158 0.00925693 2.20072e-21)
(0.0917226 0.0123603 -3.90988e-22)
(0.0892294 0.0151174 0)
(0.0867659 0.0175326 1.68779e-22)
(0.0843579 0.0196166 1.79281e-21)
(0.0820254 0.0213835 -1.12171e-21)
(0.0797799 0.0228467 1.05325e-20)
(0.077633 0.0240228 -1.33429e-23)
(0.0756279 0.0249558 4.37023e-22)
(0.0740488 0.0259493 -8.17316e-21)
(0.0950081 -0.056826 -3.82486e-20)
(0.0953926 -0.055726 3.27293e-20)
(0.0961848 -0.0545907 0)
(0.0969962 -0.0530375 -3.40753e-20)
(0.0977418 -0.0510262 4.0084e-20)
(0.0983853 -0.0485652 -1.90868e-20)
(0.0988953 -0.0456766 3.13785e-20)
(0.0992357 -0.0423896 -1.4468e-20)
(0.0993715 -0.0387444 0)
(0.0992734 -0.034793 0)
(0.0989202 -0.0305977 5.92971e-21)
(0.0982993 -0.0262279 -5.90182e-21)
(0.0974084 -0.0217576 0)
(0.0962545 -0.017261 1.96118e-22)
(0.094854 -0.0128095 -1.64647e-19)
(0.0932303 -0.00846857 1.64612e-19)
(0.0914123 -0.00429548 -3.65701e-23)
(0.0894323 -0.00033782 0)
(0.0873239 0.00336699 1.21204e-21)
(0.0851205 0.00679156 -1.11395e-21)
(0.0828541 0.00991784 0)
(0.0805546 0.0127361 0)
(0.0782487 0.0152437 6.77089e-21)
(0.0759608 0.0174441 -1.27665e-20)
(0.0737117 0.0193453 5.41617e-21)
(0.0715184 0.0209585 -1.2395e-20)
(0.0693903 0.0222933 1.3825e-20)
(0.0673381 0.023363 0)
(0.0654041 0.0242074 -1.29827e-20)
(0.0638536 0.0251071 1.02588e-20)
(0.0806104 -0.051929 -3.75185e-20)
(0.0811712 -0.0506099 3.64938e-20)
(0.0820791 -0.0492678 -3.86824e-20)
(0.0829602 -0.0475453 6.26666e-23)
(0.0837339 -0.0454143 4.21732e-22)
(0.0843695 -0.0428932 5.69854e-20)
(0.0848431 -0.0400128 -1.77861e-20)
(0.0851276 -0.0368086 -1.95072e-21)
(0.0851989 -0.0333245 1.34395e-20)
(0.085039 -0.0296127 -2.55628e-20)
(0.0846377 -0.0257316 1.20306e-20)
(0.0839931 -0.0217432 4.63397e-21)
(0.0831111 -0.0177102 -5.63878e-21)
(0.082005 -0.013693 2.06618e-21)
(0.0806939 -0.0097476 -1.12751e-19)
(0.0792011 -0.00592365 1.12109e-19)
(0.0775522 -0.00226323 -2.96365e-22)
(0.0757739 0.00119939 1.79109e-21)
(0.0738924 0.00443764 -1.25322e-21)
(0.0719328 0.00743213 -5.28756e-21)
(0.0699186 0.0101699 1.16118e-20)