/*--------------------------------*- C++ -*----------------------------------*\
  =========                 |
  \\      /  F ield         | OpenFOAM: The Open Source CFD Toolbox
   \\    /   O peration     | Website:  https://openfoam.org
    \\  /    A nd           | Version:  12
     \\/     M anipulation  |
\*---------------------------------------------------------------------------*/
FoamFile
{
    format      ascii;
    class       volVectorField;
    location    "280";
    object      UMean;
}
// * * * * * * * * * * * * * * * * * * * * * * * * * * * * * * * * * * * * * //

dimensions      [0 1 -1 0 0 0 0];

internalField   nonuniform List<vector> 
6750
(
(0.200072 -0.00308042 0)
(0.200367 -0.00936481 0)
(0.20066 -0.015114 0)
(0.200913 -0.0204123 0)
(0.200811 -0.025361 0)
(0.200037 -0.00346727 0)
(0.200284 -0.00997985 0)
(0.200494 -0.0156668 0)
(0.200581 -0.0206901 0)
(0.200477 -0.025144 0)
(0.200026 -0.00363268 0)
(0.20013 -0.010215 0)
(0.200152 -0.0157797 0)
(0.200039 -0.0205275 0)
(0.199808 -0.0245658 0)
(0.20001 -0.00366741 0)
(0.199961 -0.0101711 0)
(0.199789 -0.01555 0)
(0.199494 -0.0200419 0)
(0.19913 -0.0237902 0)
(0.199995 -0.00360072 0)
(0.199804 -0.00989686 0)
(0.199448 -0.0150338 0)
(0.198975 -0.0192755 0)
(0.198464 -0.0227894 0)
(0.199983 -0.00344998 0)
(0.199662 -0.00942671 0)
(0.199128 -0.0142644 0)
(0.198472 -0.0182375 0)
(0.197796 -0.0215222 0)
(0.199973 -0.00322955 0)
(0.199528 -0.00878803 0)
(0.19882 -0.013267 0)
(0.197978 -0.0169379 0)
(0.197122 -0.019974 0)
(0.199963 -0.0029505 0)
(0.199401 -0.00800375 0)
(0.198523 -0.0120654 0)
(0.197495 -0.0153936 0)
(0.196453 -0.0181509 0)
(0.199955 -0.00262251 0)
(0.199282 -0.00709659 0)
(0.198244 -0.0106881 0)
(0.197036 -0.013633 0)
(0.19581 -0.0160782 0)
(0.199947 -0.00225545 0)
(0.199175 -0.00609138 0)
(0.19799 -0.0091689 0)
(0.196617 -0.0116952 0)
(0.19522 -0.0137975 0)
(0.199941 -0.0018598 0)
(0.199083 -0.00501513 0)
(0.197771 -0.00754662 0)
(0.196255 -0.00962708 0)
(0.194708 -0.0113619 0)
(0.199936 -0.00144632 0)
(0.199009 -0.00389568 0)
(0.197594 -0.00586196 0)
(0.195962 -0.00747935 0)
(0.194292 -0.00883015 0)
(0.199932 -0.00102546 0)
(0.198955 -0.00276013 0)
(0.197464 -0.00415485 0)
(0.195745 -0.00530215 0)
(0.193982 -0.00626125 0)
(0.199928 -0.000606523 0)
(0.198923 -0.00163337 0)
(0.197381 -0.00246149 0)
(0.195606 -0.00314125 0)
(0.193783 -0.00370968 0)
(0.199919 -0.000201276 0)
(0.198918 -0.000535095 0)
(0.197344 -0.000810702 0)
(0.195542 -0.00103484 0)
(0.193689 -0.00122208 0)
(0.199919 0.000201244 0)
(0.198918 0.00053514 0)
(0.197344 0.000810864 0)
(0.195542 0.00103513 0)
(0.193689 0.00122248 0)
(0.199928 0.00060649 0)
(0.198923 0.00163342 0)
(0.197381 0.00246165 0)
(0.195606 0.00314153 0)
(0.193783 0.00371008 0)
(0.199932 0.00102542 0)
(0.198955 0.00276018 0)
(0.197464 0.00415501 0)
(0.195745 0.00530244 0)
(0.193982 0.00626165 0)
(0.199936 0.00144629 0)
(0.199009 0.00389573 0)
(0.197594 0.00586213 0)
(0.195962 0.00747964 0)
(0.194292 0.00883055 0)
(0.199941 0.00185977 0)
(0.199083 0.00501518 0)
(0.197771 0.00754679 0)
(0.196255 0.00962737 0)
(0.194708 0.0113623 0)
(0.199947 0.00225542 0)
(0.199175 0.00609144 0)
(0.19799 0.00916907 0)
(0.196617 0.0116955 0)
(0.19522 0.0137979 0)
(0.199955 0.00262248 0)
(0.199282 0.00709665 0)
(0.198244 0.0106882 0)
(0.197036 0.0136333 0)
(0.19581 0.0160786 0)
(0.199963 0.00295048 0)
(0.199401 0.00800381 0)
(0.198523 0.0120656 0)
(0.197495 0.0153939 0)
(0.196453 0.0181513 0)
(0.199973 0.00322954 0)
(0.199528 0.0087881 0)
(0.19882 0.0132671 0)
(0.197978 0.0169382 0)
(0.197122 0.0199744 0)
(0.199983 0.00344998 0)
(0.199662 0.00942679 0)
(0.199128 0.0142646 0)
(0.198472 0.0182378 0)
(0.197796 0.0215226 0)
(0.199995 0.00360073 0)
(0.199804 0.00989695 0)
(0.199448 0.015034 0)
(0.198975 0.0192758 0)
(0.198464 0.0227898 0)
(0.20001 0.00366742 0)
(0.199961 0.0101712 0)
(0.199789 0.0155502 0)
(0.199494 0.0200422 0)
(0.19913 0.0237906 0)
(0.200026 0.00363271 0)
(0.20013 0.0102151 0)
(0.200152 0.0157799 0)
(0.200039 0.0205277 0)
(0.199808 0.0245662 0)
(0.200037 0.0034673 0)
(0.200284 0.00997995 0)
(0.200494 0.015667 0)
(0.200581 0.0206903 0)
(0.200477 0.0251443 0)
(0.200072 0.00308044 0)
(0.200367 0.00936491 0)
(0.200661 0.0151141 0)
(0.200913 0.0204125 0)
(0.200811 0.0253613 0)
(0.198873 -0.0363881 0)
(0.197323 -0.041556 0)
(0.196027 -0.046256 0)
(0.195163 -0.0504449 9.76778e-23)
(0.19459 -0.0540219 0)
(0.194251 -0.0569329 0)
(0.194134 -0.0591175 -6.98662e-21)
(0.194227 -0.0604863 7.05854e-21)
(0.194506 -0.060931 6.08816e-23)
(0.194906 -0.0603943 3.85459e-21)
(0.195398 -0.0587407 4.46709e-23)
(0.195905 -0.0558507 2.42949e-23)
(0.196346 -0.0517782 -2.02325e-21)
(0.196642 -0.046591 -2.02585e-21)
(0.196717 -0.04043 -4.73001e-21)
(0.196518 -0.0335018 4.73172e-21)
(0.196016 -0.0260618 -1.86737e-21)
(0.195212 -0.0183875 -1.67859e-21)
(0.194136 -0.0107555 1.94736e-22)
(0.19284 -0.00341611 2.29501e-22)
(0.191378 0.00342773 3.11265e-21)
(0.189827 0.0096611 -4.39552e-23)
(0.188272 0.0151676 4.65532e-21)
(0.186772 0.0198977 -4.61415e-21)
(0.185379 0.0238471 0)
(0.184133 0.0270417 0)
(0.183065 0.0295268 -4.52033e-23)
(0.182199 0.0313593 0)
(0.181562 0.0326032 0)
(0.181134 0.0332941 0)
(0.198074 -0.0395472 0)
(0.196681 -0.0446194 0)
(0.195655 -0.0489086 0)
(0.194968 -0.0526182 -9.23579e-23)
(0.194505 -0.0557378 0)
(0.194253 -0.0582317 0)
(0.194211 -0.0600338 7.65245e-21)
(0.194364 -0.0610524 -7.85345e-21)
(0.194684 -0.061188 -5.73204e-23)
(0.195111 -0.0603963 0)
(0.195612 -0.0585201 0)
(0.196105 -0.0554975 -3.71149e-21)
(0.19652 -0.0513778 3.72318e-21)
(0.196781 -0.046231 0)
(0.19682 -0.0401913 -1.23422e-20)
(0.19659 -0.0334497 1.23434e-20)
(0.196068 -0.0262378 0)
(0.195256 -0.0188077 3.28021e-21)
(0.194183 -0.011408 -3.29821e-21)
(0.192897 -0.00426505 0)
(0.191459 0.00243597 0)
(0.189933 0.00857473 4.12631e-23)
(0.188387 0.0140481 -4.66545e-21)
(0.186887 0.0188046 4.69797e-21)
(0.185481 0.0228313 0)
(0.184208 0.026145 0)
(0.183096 0.0287819 4.26013e-23)
(0.182166 0.0307903 0)
(0.181448 0.0322308 0)
(0.180945 0.0331689 0)
(0.197318 -0.0419858 0)
(0.196223 -0.0465749 0)
(0.195367 -0.0504719 0)
(0.194766 -0.0538716 8.33727e-21)
(0.194375 -0.0567311 -8.4293e-21)
(0.194194 -0.0589922 8.80754e-21)
(0.194218 -0.0605771 -8.89032e-21)
(0.194432 -0.0613927 1.32206e-22)
(0.194802 -0.0613477 0)
(0.19527 -0.0603987 0)
(0.195797 -0.0583798 -1.31792e-22)
(0.196297 -0.0552689 0)
(0.196705 -0.051107 0)
(0.196942 -0.0459664 -2.90538e-23)
(0.196943 -0.0399796 -1.9727e-20)
(0.196665 -0.0333307 1.97278e-20)
(0.196088 -0.0262403 2.47088e-23)
(0.19522 -0.0189462 0)
(0.194092 -0.0116824 0)
(0.192754 -0.00466016 8.1132e-23)
(0.191267 0.00194626 0)
(0.189698 0.00800468 0)
(0.188113 0.0134329 -7.53773e-23)
(0.186573 0.0181792 -3.80917e-21)
(0.185127 0.022228 3.77371e-21)
(0.183811 0.0255915 -2.97444e-21)
(0.182651 0.0283009 2.93103e-21)
(0.181664 0.0303981 0)
(0.180882 0.0319443 0)
(0.180368 0.0330624 0)
(0.196646 -0.0441729 0)
(0.19576 -0.0483653 -1.89569e-20)
(0.195002 -0.0519501 9.50699e-21)
(0.194469 -0.0550797 1.99801e-20)
(0.194148 -0.0576928 -2.02258e-20)
(0.194037 -0.0597231 1.00563e-20)
(0.194129 -0.06109 0)
(0.194408 -0.0617018 3.14809e-22)
(0.194827 -0.0614821 0)
(0.195347 -0.0603686 0)
(0.195905 -0.0582118 4.68613e-21)
(0.196424 -0.0550151 -4.42571e-21)
(0.19683 -0.050812 0)
(0.197046 -0.045678 3.05027e-23)
(0.197006 -0.0397439 -2.65166e-20)
(0.196669 -0.0331871 2.65198e-20)
(0.196018 -0.0262181 -2.59427e-23)
(0.195065 -0.0190617 0)
(0.193845 -0.0119378 -2.60932e-21)
(0.192414 -0.00504497 2.44089e-21)
(0.190837 0.00145264 6.44767e-23)
(0.189183 0.00743127 0)
(0.187519 0.0128087 -1.03769e-22)
(0.185906 0.0175371 0)
(0.184391 0.0216 2.78217e-21)
(0.183012 0.0250069 -5.05813e-21)
(0.181792 0.0277845 4.29523e-21)
(0.180743 0.0299683 1.36851e-21)
(0.179898 0.031616 -3.30434e-21)
(0.179393 0.0329125 0)
(0.195951 -0.0462532 0)
(0.195192 -0.0501039 2.25025e-20)
(0.194514 -0.0534001 -2.20952e-20)
(0.194053 -0.0562656 0)
(0.193803 -0.0586342 0)
(0.193763 -0.0604351 3.6406e-22)
(0.193921 -0.0615858 0)
(0.194265 -0.0619956 -3.29738e-22)
(0.194738 -0.0616036 5.13214e-21)
(0.195308 -0.0603204 -5.2231e-21)
(0.195899 -0.0580288 -4.8782e-21)
(0.196436 -0.054742 4.75039e-21)
(0.19684 -0.0504921 1.34106e-22)
(0.197031 -0.0453573 -6.15176e-23)
(0.196944 -0.0394671 -3.27075e-20)
(0.196539 -0.0329938 3.2712e-20)
(0.195802 -0.0261386 4.4901e-23)
(0.194748 -0.0191149 -7.96217e-23)
(0.193418 -0.0121298 2.31667e-21)
(0.191872 -0.00536953 -2.23065e-21)
(0.19018 0.00101184 -1.90755e-21)
(0.188414 0.00689851 1.82687e-21)
(0.186645 0.012212 1.08749e-22)
(0.184934 0.0169072 0)
(0.183329 0.0209684 -6.03139e-23)
(0.181868 0.0244034 0)
(0.180573 0.0272354 0)
(0.179454 0.0294946 -2.52117e-21)
(0.17854 0.031233 2.42989e-21)
(0.178039 0.0326978 0)
(0.195163 -0.0482318 2.44188e-20)
(0.194485 -0.0517598 -3.83115e-20)
(0.193883 -0.0547821 1.25715e-20)
(0.193495 -0.0573966 0)
(0.193317 -0.0595321 1.25499e-20)
(0.193345 -0.0611134 -1.22711e-20)
(0.19357 -0.0620563 1.1775e-20)
(0.193977 -0.0622727 -1.21701e-20)
(0.194504 -0.0617112 0)
(0.195121 -0.0602582 -3.51025e-22)
(0.195742 -0.0578342 5.0459e-21)
(0.196293 -0.054453 -2.73213e-21)
(0.196689 -0.0501487 -4.86803e-22)
(0.19685 -0.0450023 -2.08278e-21)
(0.19671 -0.0391426 -3.82656e-20)
(0.19623 -0.0327379 3.82634e-20)
(0.195399 -0.0259824 -1.39045e-21)
(0.194237 -0.0190794 3.28427e-22)
(0.192788 -0.0122251 -8.5257e-22)
(0.191116 -0.0055946 2.00514e-21)
(0.189296 0.000667939 8.55295e-23)
(0.187404 0.0064541 0)
(0.185514 0.0116908 -2.13051e-21)
(0.183688 0.0163365 2.15669e-21)
(0.181977 0.020377 -1.501e-21)
(0.180419 0.0238197 1.47098e-21)
(0.179036 0.0266856 4.36087e-23)
(0.177837 0.0290006 7.49561e-22)
(0.176845 0.0308112 -2.6149e-21)
(0.176334 0.0324219 2.00354e-21)
(0.194241 -0.0500971 -1.33372e-20)
(0.193619 -0.0533194 1.50623e-20)
(0.193089 -0.0560876 1.49436e-20)
(0.192772 -0.0584678 -1.51484e-20)
(0.192663 -0.0603834 1.39215e-20)
(0.192758 -0.0617553 -1.4942e-20)
(0.19305 -0.0624991 -4.56795e-22)
(0.193515 -0.0625308 0)
(0.194095 -0.0617996 6.07203e-21)
(0.194753 -0.0601784 -4.78619e-23)
(0.195398 -0.0576227 -9.73369e-23)
(0.195957 -0.054143 -5.55261e-21)
(0.196338 -0.0497764 -2.06387e-21)
(0.196462 -0.0446071 3.19665e-21)
(0.196263 -0.0387644 -4.40296e-20)
(0.195704 -0.0324135 4.23103e-20)
(0.194777 -0.0257428 1.9734e-21)
(0.193503 -0.0189475 -1.3778e-21)
(0.191931 -0.0122143 -1.69036e-21)
(0.19013 -0.00570829 2.35641e-22)
(0.188178 0.000435352 1.80104e-22)
(0.186154 0.00611568 1.07758e-21)
(0.184135 0.0112654 0)
(0.182185 0.0158471 -7.86893e-24)
(0.180358 0.0198489 -6.33268e-22)
(0.178692 0.0232787 7.02237e-22)
(0.177211 0.0261569 -2.97745e-22)
(0.175921 0.0285063 2.6082e-22)
(0.174843 0.0303683 5.33012e-22)
(0.174303 0.0320969 -5.89274e-22)
(0.193152 -0.0518496 0)
(0.192568 -0.0547871 1.45631e-20)
(0.192107 -0.057322 -1.77154e-20)
(0.191858 -0.0594838 1.64725e-20)
(0.191816 -0.0611909 -1.57393e-20)
(0.191978 -0.062362 1.40506e-20)
(0.192334 -0.062913 -1.42443e-20)
(0.192851 -0.0627674 -9.08809e-22)
(0.193481 -0.0618614 -4.32128e-22)
(0.194172 -0.0600748 -4.06594e-22)
(0.194836 -0.0573866 -3.69517e-22)
(0.195393 -0.0538031 1.69253e-22)
(0.195753 -0.0493664 -2.42501e-21)
(0.195833 -0.0441641 1.29285e-21)
(0.19557 -0.038326 -4.60914e-20)
(0.194929 -0.0320156 4.77724e-20)
(0.193903 -0.0254164 4.30389e-22)
(0.192518 -0.0187168 -9.98448e-22)
(0.190825 -0.0120952 4.13044e-23)
(0.188896 -0.00570787 1.41267e-22)
(0.186813 0.000318369 3.47281e-23)
(0.184658 0.0058898 1.68092e-23)
(0.182509 0.0109449 5.07635e-24)
(0.180433 0.0154507 -1.24281e-22)
(0.178485 0.0193982 4.54597e-23)
(0.176705 0.0227968 3.68433e-22)
(0.175119 0.0256666 -3.60189e-22)
(0.17373 0.0280293 5.23984e-22)
(0.172559 0.0299224 -6.10275e-22)
(0.171972 0.0317388 0)
(0.191863 -0.0534949 0)
(0.191309 -0.0561693 1.10722e-21)
(0.190912 -0.0584898 -1.50039e-20)
(0.19073 -0.0604466 3.88654e-22)
(0.190753 -0.0619546 1.73098e-20)
(0.190979 -0.0629317 1.02371e-21)
(0.191396 -0.0632937 1.02652e-21)
(0.191959 -0.0629754 -6.51073e-21)
(0.192634 -0.0618896 8.06433e-21)
(0.193349 -0.0599409 -8.76862e-24)
(0.194024 -0.0571163 -2.99562e-21)
(0.194572 -0.0534236 3.01361e-21)
(0.194901 -0.0489095 -1.00832e-21)
(0.194931 -0.043665 1.1699e-21)
(0.194601 -0.0378211 -5.0263e-20)
(0.193875 -0.0315398 5.02579e-20)
(0.192751 -0.0250006 4.993e-22)
(0.191257 -0.0183861 -5.56758e-22)
(0.189447 -0.0118672 4.3104e-22)
(0.187396 -0.00559257 -5.61094e-22)
(0.185187 0.000318841 -3.07426e-23)
(0.182905 0.00578008 -1.19385e-22)
(0.180629 0.0107353 8.15684e-23)
(0.178429 0.015156 8.18183e-23)
(0.176361 0.0190364 3.54316e-23)
(0.174466 0.0223877 -1.32394e-21)
(0.17277 0.0252309 -1.60351e-22)
(0.171278 0.0275869 1.63438e-21)
(0.17001 0.0294914 0)
(0.169359 0.0313659 0)
(0.190343 -0.0550395 0)
(0.189814 -0.057471 -1.99738e-20)
(0.18948 -0.0595927 3.89218e-22)
(0.189362 -0.0613555 4.9153e-22)
(0.189448 -0.062672 3.60622e-20)
(0.189734 -0.0634601 -1.85808e-20)
(0.190207 -0.0636373 -1.0728e-21)
(0.190813 -0.0631447 0)
(0.191524 -0.0618765 7.08763e-21)
(0.192257 -0.0597657 -7.21957e-21)
(0.192934 -0.0568011 3.15206e-21)
(0.193464 -0.0529939 -3.94064e-22)
(0.193755 -0.048396 -2.79132e-21)
(0.19373 -0.0431016 6.70062e-23)
(0.193327 -0.0372431 -5.2507e-20)
(0.192516 -0.0309815 5.25245e-20)
(0.191295 -0.024493 -2.90677e-23)
(0.189696 -0.0179546 -5.3745e-22)
(0.187775 -0.0115309 2.74433e-22)
(0.185609 -0.00536315 2.9139e-22)
(0.183282 0.000436538 3.23083e-22)
(0.18088 0.00578763 -3.59443e-22)
(0.178486 0.0106397 0)
(0.176167 0.0149686 -8.55425e-23)
(0.173982 0.0187717 2.25916e-21)
(0.171975 0.0220626 -4.80751e-21)
(0.170169 0.0248631 -1.41157e-22)
(0.168573 0.0271947 -1.01725e-22)
(0.167206 0.0290926 2.39453e-21)
(0.166478 0.030997 0)
(0.188564 -0.0564895 -2.68548e-21)
(0.188057 -0.0586954 0)
(0.187784 -0.060631 -1.27e-21)
(0.187727 -0.0622084 1.89797e-20)
(0.187875 -0.0633386 -2.0683e-20)
(0.188218 -0.0639409 1.9288e-20)
(0.188738 -0.0639368 -1.94207e-20)
(0.189386 -0.0632637 -8.65978e-21)
(0.190124 -0.0618115 1.79923e-20)
(0.190867 -0.0595374 -2.94293e-22)
(0.191536 -0.056429 -7.02524e-21)
(0.19204 -0.0525028 2.87876e-21)
(0.192287 -0.0478156 -1.67872e-21)
(0.192201 -0.0424652 -1.78206e-21)
(0.191723 -0.0365856 -5.32445e-20)
(0.190826 -0.0303367 5.39821e-20)
(0.189511 -0.0238916 -5.88276e-22)
(0.187812 -0.0174224 1.07007e-23)
(0.185788 -0.0110876 3.3279e-22)
(0.183514 -0.0050218 5.07502e-22)
(0.181079 0.000669305 4.89925e-22)
(0.178568 0.00591112 -1.98629e-21)
(0.176063 0.0106583 1.21694e-21)
(0.173635 0.0148907 3.28487e-21)
(0.17134 0.018609 -3.23935e-21)
(0.169225 0.021829 3.54058e-21)
(0.167313 0.0245738 -3.81586e-21)
(0.165614 0.0268656 2.64634e-22)
(0.164148 0.0287407 0)
(0.163335 0.03065 -2.70586e-22)
(0.186492 -0.0578495 2.79295e-21)
(0.186008 -0.0598441 -2.38249e-20)
(0.185795 -0.0616028 2.28181e-20)
(0.185799 -0.0630007 1.37234e-21)
(0.186005 -0.0639478 1.3483e-21)
(0.186404 -0.0643644 0)
(0.186962 -0.0641811 -1.28587e-21)
(0.187648 -0.0633195 -1.05193e-20)
(0.188403 -0.0616834 1.75203e-20)
(0.189149 -0.059243 -9.23642e-21)
(0.189803 -0.0559872 -4.6258e-22)
(0.190273 -0.051938 2.97439e-21)
(0.190469 -0.0471576 -2.99037e-21)
(0.190317 -0.0417473 -6.73943e-23)
(0.189763 -0.0358421 -5.37616e-20)
(0.18878 -0.0296013 5.37441e-20)
(0.187375 -0.0231948 1.9199e-23)
(0.185582 -0.01679 -1.0651e-22)
(0.183461 -0.0105394 1.06059e-22)
(0.181091 -0.00457175 -3.31343e-23)
(0.178558 0.00101354 1.47032e-21)
(0.175948 0.0061473 -3.50597e-21)
(0.173344 0.0107888 1.57917e-21)
(0.170816 0.0149219 -3.22149e-22)
(0.168421 0.01855 0)
(0.166205 0.0216913 2.69107e-22)
(0.164194 0.02437 2.73486e-22)
(0.162396 0.0266097 -4.73455e-21)
(0.160833 0.0284482 4.39473e-21)
(0.159931 0.0303407 2.81355e-22)
(0.184096 -0.0591219 0)
(0.183635 -0.0609157 -6.57412e-23)
(0.183482 -0.0625034 2.4174e-20)
(0.183546 -0.0637249 -2.46433e-20)
(0.183808 -0.06449 -2.32007e-20)
(0.184256 -0.0647208 3.591e-20)
(0.184852 -0.0643553 -9.88845e-21)
(0.185568 -0.0632987 -3.12202e-23)
(0.186334 -0.0614781 -1.21716e-21)
(0.187075 -0.058868 0)
(0.187705 -0.0554616 -3.61252e-21)
(0.188134 -0.0512869 6.70353e-21)
(0.188274 -0.046411 -3.08127e-21)
(0.188053 -0.0409386 7.05211e-23)
(0.18742 -0.035006 -5.25248e-20)
(0.186354 -0.0287712 5.25413e-20)
(0.184861 -0.0224009 -2.00884e-23)
(0.18298 -0.0160579 1.50076e-22)
(0.180773 -0.00988902 -6.86818e-22)
(0.178316 -0.00401693 5.33696e-22)
(0.175696 0.00146457 0)
(0.173001 0.00649143 -3.49464e-22)
(0.170309 0.0110273 -8.42419e-23)
(0.167692 0.0150593 3.44143e-21)
(0.165208 0.0185938 -9.02958e-21)
(0.1629 0.0216507 6.30287e-21)
(0.160797 0.0242556 6.49082e-21)
(0.158906 0.0264332 -6.72978e-21)
(0.157252 0.028224 -7.63858e-23)
(0.156259 0.0300817 0)
(0.18134 -0.0603062 0)
(0.180906 -0.0619057 -2.46006e-20)
(0.180812 -0.0633249 2.67867e-20)
(0.180935 -0.0643709 2.39758e-20)
(0.181252 -0.0649532 -2.61231e-20)
(0.181744 -0.0649975 -1.34171e-20)
(0.182376 -0.0644422 8.21077e-22)
(0.183113 -0.0631859 1.2909e-20)
(0.183883 -0.0611789 2.56229e-21)
(0.184612 -0.0583963 0)
(0.185212 -0.0548372 0)
(0.185593 -0.0505358 -2.71419e-21)
(0.185671 -0.0455642 3.33926e-21)
(0.185379 -0.04003 0)
(0.184667 -0.0340706 -4.98449e-20)
(0.183519 -0.0278423 4.98418e-20)
(0.181945 -0.0215085 0)
(0.179984 -0.0152271 -4.17926e-22)
(0.177698 -0.00913929 5.40453e-22)
(0.175165 -0.00336185 0)
(0.172472 0.00201686 0)
(0.169702 0.00693758 8.18556e-22)
(0.166936 0.0113678 -3.36245e-21)
(0.164243 0.015298 -2.50375e-22)
(0.16168 0.0187367 3.44572e-21)
(0.159291 0.0217055 8.18897e-21)
(0.157104 0.0242312 -8.58989e-21)
(0.155128 0.0263395 -7.82119e-21)
(0.15339 0.0280736 8.082e-21)
(0.152307 0.0298825 0)
(0.178185 -0.0613983 0)
(0.177783 -0.0628042 0)
(0.17775 -0.064056 0)
(0.177932 -0.0649253 -2.58433e-20)
(0.178302 -0.0653213 1.28774e-20)
(0.178832 -0.0651779 1.5123e-20)
(0.179498 -0.0644215 1.59287e-21)
(0.18025 -0.0629637 1.12675e-20)
(0.181018 -0.0607674 -1.15246e-21)
(0.181727 -0.0578102 -1.03782e-20)
(0.182289 -0.0540977 -5.32168e-22)
(0.182617 -0.0496703 -8.95298e-22)
(0.182631 -0.0446048 -1.61082e-21)
(0.182264 -0.0390118 1.19278e-21)
(0.181474 -0.0330288 -4.55271e-20)
(0.180248 -0.0268104 4.55336e-20)
(0.178597 -0.0205162 -1.09229e-22)
(0.176563 -0.0142987 4.26062e-23)
(0.174209 -0.00829354 -2.57186e-22)
(0.171613 -0.00261159 -2.05119e-22)
(0.168857 0.00266406 3.91054e-21)
(0.166026 0.00747865 6.2162e-22)
(0.163199 0.0118033 -4.32534e-21)
(0.160442 0.0156312 6.55222e-22)
(0.157813 0.0189729 -4.35221e-21)
(0.155355 0.0218514 -5.83917e-21)
(0.153094 0.0242942 1.04684e-20)
(0.151041 0.0263281 0)
(0.149227 0.027999 0)
(0.148059 0.0297486 0)
(0.174589 -0.0623873 -3.06794e-20)
(0.174225 -0.0635989 3.23474e-20)
(0.174253 -0.0646818 0)
(0.174496 -0.0653711 -1.47937e-20)
(0.174916 -0.0655762 1.67735e-20)
(0.175485 -0.0652388 1.36119e-20)
(0.17618 -0.0642724 -1.72998e-20)
(0.17694 -0.0626115 0)
(0.177701 -0.0602231 -1.42557e-21)
(0.178383 -0.0570901 0)
(0.178902 -0.0532251 3.921e-25)
(0.179171 -0.0486746 6.76801e-24)
(0.179116 -0.0435199 3.61505e-22)
(0.178674 -0.0378738 1.30242e-22)
(0.177808 -0.0318736 -3.9459e-20)
(0.176507 -0.0256714 3.9441e-20)
(0.174786 -0.0194226 1.29937e-23)
(0.172689 -0.0132741 1.07258e-22)
(0.170277 -0.00735552 -4.54122e-23)
(0.167628 -0.0017719 -4.89111e-23)
(0.164824 0.00339889 0)
(0.161946 0.00810638 -5.94181e-22)
(0.159071 0.012325 0)
(0.156264 0.0160503 4.52701e-21)
(0.153581 0.0192945 -5.77907e-21)
(0.151065 0.0220815 -5.40741e-21)
(0.148741 0.0244393 5.98387e-21)
(0.146621 0.0263956 0)
(0.144738 0.0279989 -9.10178e-21)
(0.143491 0.0296816 9.91627e-21)
(0.170504 -0.0632576 0)
(0.170184 -0.0642728 8.26621e-23)
(0.170278 -0.0651827 3.45174e-20)
(0.170583 -0.0656859 -3.2936e-20)
(0.171051 -0.0656956 1.98157e-21)
(0.17166 -0.0651529 -3.7677e-21)
(0.172377 -0.0639708 1.76965e-21)
(0.173142 -0.0621044 0)
(0.173889 -0.0595222 0)
(0.174538 -0.0562141 0)
(0.175007 -0.0521998 5.76684e-22)
(0.175215 -0.0475319 -2.85305e-21)
(0.175088 -0.0422955 4.39318e-21)
(0.174571 -0.0366051 -1.68725e-21)
(0.173631 -0.0305973 -3.09169e-20)
(0.172259 -0.024421 3.12559e-20)
(0.170476 -0.0182266 4.61326e-22)
(0.168325 -0.0121551 -2.06389e-21)
(0.165867 -0.00632966 1.756e-21)
(0.163179 -0.000849396 2.73329e-22)
(0.160339 0.00421299 3.82399e-22)
(0.157428 0.00881111 0)
(0.154519 0.0129225 0)
(0.151676 0.0165446 8.2295e-22)
(0.148952 0.0196908 -1.80997e-21)
(0.14639 0.022386 9.72535e-22)
(0.144014 0.0246579 1.44612e-20)
(0.141837 0.0265349 -1.31735e-20)
(0.139894 0.0280678 1.18384e-22)
(0.138574 0.0296789 0)
(0.16588 -0.0639857 -3.50204e-20)
(0.165608 -0.0648043 3.2483e-20)
(0.165772 -0.0655331 1.5178e-20)
(0.166141 -0.0658416 -1.76397e-20)
(0.166658 -0.0656501 -1.82017e-20)
(0.167305 -0.0648885 1.86377e-20)
(0.168041 -0.063489 1.456e-20)
(0.168806 -0.0614142 -1.30466e-20)
(0.169533 -0.0586379 6.78134e-21)
(0.170144 -0.0551576 -6.06289e-21)
(0.170559 -0.0510001 4.89494e-21)
(0.1707 -0.0462234 -2.66154e-21)
(0.170501 -0.0409163 -1.51763e-21)
(0.169909 -0.0351943 5.61703e-23)
(0.168898 -0.0291923 -2.08765e-20)
(0.167462 -0.0230551 2.08512e-20)
(0.165625 -0.0169276 3.38019e-23)
(0.16343 -0.0109443 1.13518e-21)
(0.160939 -0.00522133 1.66453e-21)
(0.158225 0.000148072 -2.64645e-21)
(0.155365 0.00509644 3.22488e-21)
(0.152435 0.00958137 -3.06189e-21)
(0.149507 0.0135831 9.37544e-21)
(0.146642 0.0171008 -8.14205e-21)
(0.143891 0.0201488 -7.64529e-21)
(0.141295 0.022752 7.454e-21)
(0.138879 0.0249379 8.54184e-21)
(0.136654 0.0267352 -9.31444e-21)
(0.13466 0.0281964 -1.51994e-20)
(0.133275 0.0297333 1.44115e-20)
(0.160653 -0.0645432 -2.35865e-21)
(0.160436 -0.0651629 -3.70517e-20)
(0.160676 -0.0656994 4.07788e-20)
(0.161111 -0.0658044 0)
(0.161681 -0.0654003 -2.27353e-21)
(0.162364 -0.0644112 0)
(0.163115 -0.0627916 -2.05454e-21)
(0.163876 -0.0605073 1.41293e-20)
(0.164577 -0.0575391 -1.51726e-20)
(0.165145 -0.0538924 7.3889e-22)
(0.165501 -0.0496011 -1.23479e-21)
(0.165573 -0.0447284 -4.84526e-22)
(0.165299 -0.0393658 -1.82679e-22)
(0.164635 -0.033629 -5.83034e-23)
(0.163557 -0.0276502 -7.87708e-21)
(0.162065 -0.0215697 7.86445e-21)
(0.160184 -0.0155255 -3.5085e-23)
(0.157957 -0.00964497 -1.2295e-22)
(0.155446 -0.00403729 4.00768e-22)
(0.152721 0.00121089 0)
(0.149856 0.00603725 5.49131e-22)
(0.146923 0.0104032 8.79145e-21)
(0.143991 0.0142916 -8.99713e-21)
(0.141119 0.0177028 -1.31651e-21)
(0.138355 0.0206517 0)
(0.135738 0.0231629 -1.34098e-21)
(0.133293 0.0252632 0)
(0.131032 0.0269812 -1.79124e-20)
(0.128995 0.0283707 1.87076e-20)
(0.127553 0.0298325 -1.05803e-21)
(0.154752 -0.0648929 -3.7569e-20)
(0.154599 -0.0653052 3.94428e-20)
(0.154922 -0.0656372 1.11991e-22)
(0.155424 -0.0655311 2.15633e-20)
(0.15605 -0.0648988 -3.58036e-20)
(0.156768 -0.0636788 2.12877e-20)
(0.157531 -0.061837 2.11489e-21)
(0.158283 -0.0593441 4.91882e-23)
(0.158954 -0.0561892 0)
(0.159473 -0.052386 -7.63055e-22)
(0.159766 -0.0479746 -3.23179e-21)
(0.159766 -0.0430232 5.05727e-21)
(0.159419 -0.0376253 1.68447e-22)
(0.158684 -0.0318956 -2.03236e-22)
(0.157545 -0.0259628 8.22394e-21)
(0.156005 -0.019961 -8.28726e-21)
(0.154091 -0.0140211 3.7951e-22)
(0.151846 -0.00826235 1.89025e-22)
(0.14933 -0.00278638 -4.36777e-21)
(0.14661 0.00232687 3.90796e-21)
(0.143757 0.00702038 -5.67084e-22)
(0.140839 0.0112593 0)
(0.13792 0.0150287 -1.31013e-21)
(0.135056 0.01833 1.35517e-21)
(0.132293 0.0211781 -1.02701e-20)
(0.12967 0.023597 2.47122e-20)
(0.127208 0.0256123 -9.94448e-21)
(0.124921 0.0272519 1.79646e-22)
(0.122851 0.0285706 -1.98826e-20)
(0.121358 0.0299578 2.11978e-20)
(0.148089 -0.064982 0)
(0.148014 -0.0651758 0)
(0.148423 -0.0652917 -2.34547e-20)
(0.149001 -0.0649621 1.9006e-20)
(0.149685 -0.0640913 0)
(0.150435 -0.0626383 -2.38435e-21)
(0.151208 -0.0605738 -2.30938e-21)
(0.151946 -0.0578766 -2.05237e-21)
(0.152581 -0.0545447 0)
(0.153046 -0.0505994 0)
(0.153272 -0.0460875 -6.54063e-22)
(0.153199 -0.0410808 1.90759e-21)
(0.152778 -0.0356738 -2.01306e-21)
(0.151978 -0.0299793 -4.69329e-23)
(0.150784 -0.0241209 2.702e-20)
(0.149207 -0.0182259 -2.70574e-20)
(0.147272 -0.0124167 -6.5736e-23)
(0.145025 -0.0068038 1.50642e-21)
(0.142521 -0.00148054 -1.91501e-21)
(0.139825 0.00348007 0)
(0.137002 0.0080264 0)
(0.134117 0.0121273 0)
(0.131229 0.0157697 0)
(0.128391 0.0189559 -1.77786e-21)
(0.125646 0.0217004 -1.59509e-21)
(0.123031 0.0240258 0)
(0.120565 0.0259564 -1.50574e-20)
(0.118263 0.0275189 1.15457e-20)
(0.11617 0.0287682 0)
(0.114634 0.0300823 0)
(0.140561 -0.0647394 -2.87438e-21)
(0.140577 -0.0647021 0)
(0.141083 -0.0645921 0)
(0.141743 -0.064022 0)
(0.142484 -0.0629088 0)
(0.143266 -0.0612215 0)
(0.144045 -0.0589377 2.35861e-21)
(0.144763 -0.0560456 1.11005e-21)
(0.145356 -0.052552 -7.10771e-21)
(0.145761 -0.0484861 2.14789e-21)
(0.145916 -0.0439003 1.13132e-20)
(0.145768 -0.0388692 -6.5662e-21)
(0.145276 -0.0334872 7.43455e-22)
(0.144415 -0.0278636 9.17995e-22)
(0.143176 -0.0221159 4.9669e-20)
(0.141573 -0.0163628 -4.97166e-20)
(0.139634 -0.0107173 -1.7777e-21)
(0.137402 -0.00528031 -5.95649e-22)
(0.13493 -0.000136349 7.86471e-21)
(0.132278 0.00464894 -1.10327e-20)
(0.129507 0.00902943 1.82495e-22)
(0.126676 0.0129775 6.80682e-21)
(0.12384 0.016482 9.96552e-22)
(0.121047 0.0195455 1.81574e-21)
(0.118339 0.0221815 0)
(0.115747 0.0244112 0)
(0.113292 0.0262567 0)
(0.110988 0.0277433 0)
(0.108881 0.0289249 0)
(0.10731 0.0301677 -1.731e-21)
(0.132039 -0.0640688 5.98323e-21)
(0.132164 -0.0637886 -2.38986e-20)
(0.132777 -0.0634363 2.48403e-20)
(0.133524 -0.0626162 0)
(0.134322 -0.0612593 -2.20652e-20)
(0.135133 -0.0593404 2.54886e-20)
(0.135911 -0.0568466 -2.03411e-20)
(0.136602 -0.053776 1.72309e-20)
(0.137147 -0.0501445 0)
(0.137486 -0.0459885 5.22082e-21)
(0.137567 -0.041365 -2.20603e-21)
(0.137344 -0.0363504 -6.27516e-21)
(0.136783 -0.0310376 1.73778e-21)
(0.135868 -0.0255305 -6.35439e-25)
(0.134596 -0.019939 7.63403e-20)
(0.132982 -0.014372 -7.56193e-20)
(0.131056 -0.00893171 -7.44282e-22)
(0.12886 -0.0037085 -2.46708e-21)
(0.126443 0.00122255 9.24622e-21)
(0.12386 0.00580352 1.04142e-21)
(0.121166 0.00999388 -8.13591e-21)
(0.118414 0.0137695 -1.09566e-21)
(0.115653 0.0171209 -1.97907e-20)
(0.112928 0.0200505 1.60242e-20)
(0.110276 0.0225708 -1.57087e-20)
(0.107727 0.0247004 1.7581e-20)
(0.105299 0.0264592 0)
(0.103007 0.0278701 -1.71229e-20)
(0.100899 0.0289858 1.6578e-20)
(0.0993018 0.0301591 3.76868e-21)
(0.122364 -0.0628337 1.95346e-20)
(0.122615 -0.062298 -2.54151e-20)
(0.123346 -0.0616888 -2.20447e-20)
(0.12418 -0.060617 2.62811e-20)
(0.125035 -0.0590188 2.64685e-20)
(0.125868 -0.0568779 -5.162e-20)
(0.126638 -0.0541925 3.50939e-20)
(0.127294 -0.0509706 -9.06973e-21)
(0.127781 -0.0472367 0)
(0.128048 -0.0430337 -6.17686e-21)
(0.12805 -0.0384222 5.60885e-21)
(0.127752 -0.0334786 -2.33127e-22)
(0.127128 -0.0282922 -3.12219e-22)
(0.126169 -0.0229603 2.56071e-22)
(0.124878 -0.0175831 1.07499e-19)
(0.123273 -0.012258 -1.06988e-19)
(0.121383 -0.00707531 -1.76047e-21)
(0.119248 -0.00211383 1.28622e-21)
(0.116914 0.00256148 -4.73583e-22)
(0.114428 0.00690077 -1.05126e-20)
(0.11184 0.0108693 9.52192e-21)
(0.109196 0.0144463 2.36653e-21)
(0.106539 0.0176237 1.12345e-20)
(0.103909 0.0204035 -2.7814e-20)
(0.101339 0.0227964 3.54837e-20)
(0.098855 0.0248186 -1.73167e-20)
(0.0964747 0.0264866 -2.02867e-20)
(0.0942126 0.0278207 1.96374e-20)
(0.0921169 0.0288711 1.78825e-20)
(0.090503 0.0299762 -2.25892e-20)
(0.111327 -0.0608347 3.11692e-20)
(0.111724 -0.0600298 3.68266e-21)
(0.112575 -0.0591624 -4.66174e-21)
(0.113496 -0.057842 -2.79658e-20)
(0.114399 -0.0560143 -3.13551e-21)
(0.115246 -0.0536737 4.51433e-21)
(0.115996 -0.0508295 6.90041e-23)
(0.116603 -0.0474996 0)
(0.117022 -0.0437165 0)
(0.11721 -0.039528 -6.23998e-21)
(0.117132 -0.0349966 7.04443e-21)
(0.11676 -0.0301971 2.34789e-22)
(0.116081 -0.0252129 0)
(0.115092 -0.0201324 -1.15321e-22)
(0.113801 -0.0150441 1.43732e-19)
(0.112228 -0.0100326 -1.43079e-19)
(0.110404 -0.00517453 -7.53792e-22)
(0.108362 -0.000536276 0)
(0.106144 0.00382803 4.76957e-22)
(0.103791 0.007877 -8.66463e-21)
(0.101344 0.0115817 8.37818e-21)
(0.0988441 0.0149248 -1.26284e-21)
(0.0963264 0.017899 0)
(0.0938245 0.0205059 1.85091e-22)
(0.0913673 0.0227539 4.26903e-21)
(0.0889783 0.0246561 -2.71623e-21)
(0.0866719 0.0262253 2.30599e-20)
(0.0844625 0.0274785 -2.09348e-23)
(0.0823985 0.0284623 1.85187e-21)
(0.080782 0.0294982 -1.8579e-20)
(0.0986466 -0.0577652 -2.98986e-20)
(0.0992017 -0.0566959 2.56162e-20)
(0.10017 -0.0555763 0)
(0.101167 -0.0540243 -2.56595e-20)
(0.102105 -0.0519969 3.02415e-20)
(0.102947 -0.0495001 -1.35685e-20)
(0.103659 -0.0465536 2.18382e-20)
(0.104203 -0.0431845 -9.84921e-21)
(0.104542 -0.0394318 0)
(0.104643 -0.0353466 0)
(0.104482 -0.0309909 2.5169e-21)
(0.104043 -0.0264352 -2.42393e-21)
(0.103322 -0.0217548 0)
(0.102323 -0.0170267 -1.21839e-23)
(0.101058 -0.0123255 1.85381e-19)
(0.0995512 -0.00772093 -1.85419e-19)
(0.0978282 -0.00327492 1.84507e-22)
(0.0959208 0.000959805 0)
(0.0938626 0.00494051 4.39131e-21)
(0.0916874 0.00863455 -4.23326e-21)
(0.0894285 0.0120189 0)
(0.0871174 0.0150794 0)
(0.0847833 0.0178095 1.46785e-20)
(0.0824528 0.0202096 -2.73331e-20)
(0.0801499 0.0222856 1.12689e-20)
(0.0778943 0.0240469 -2.46758e-20)
(0.0756977 0.0255022 2.73097e-20)
(0.0735736 0.0266646 0)
(0.0715695 0.0275762 -2.62629e-20)
(0.0699712 0.0285377 2.08165e-20)
(0.0839264 -0.0531402 -3.01056e-20)
(0.084636 -0.051832 2.9277e-20)
(0.085702 -0.0504904 -3.05795e-20)
(0.0867483 -0.0487537 7.01649e-22)
(0.0876922 -0.0465912 1.10686e-21)
(0.0885012 -0.0440194 4.2533e-20)
(0.0891499 -0.0410676 -1.29616e-20)
(0.0896094 -0.03777 -1.30614e-21)
(0.0898533 -0.0341699 8.03966e-21)
(0.0898615 -0.0303191 -1.43793e-20)
(0.0896215 -0.0262763 6.26576e-21)
(0.0891291 -0.0221044 1.17654e-21)
(0.0883882 -0.0178678 -9.26039e-22)
(0.0874099 -0.013629 -3.69753e-22)
(0.0862116 -0.0094468 2.33999e-19)
(0.0848149 -0.00537415 -2.32896e-19)
(0.0832445 -0.00145685 -2.93233e-21)
(0.081526 0.00226676 7.13122e-21)
(0.0796854 0.00576588 -4.34649e-21)
(0.0777477 0.0090168 -1.25116e-20)
(0.075737 0.0120024 2.58918e-20)
(0.0736758 0.0147114 -1.32056e-20)
(0.0715853 0.0171377 -1.67035e-21)