/*--------------------------------*- C++ -*----------------------------------*\
  =========                 |
  \\      /  F ield         | OpenFOAM: The Open Source CFD Toolbox
   \\    /   O peration     | Website:  https://openfoam.org
    \\  /    A nd           | Version:  12
     \\/     M anipulation  |
\*---------------------------------------------------------------------------*/
FoamFile
{
    format      ascii;
    class       volSymmTensorField;
    location    "280";
    object      UPrime2Mean;
}
// * * * * * * * * * * * * * * * * * * * * * * * * * * * * * * * * * * * * * //

dimensions      [0 2 -2 0 0 0 0];

internalField   nonuniform List<symmTensor> 
6750
(
(2.42548e-10 3.47814e-09 0 9.66556e-08 0 0)
(5.7224e-09 6.72134e-08 0 1.35454e-06 0 0)
(1.85659e-08 2.26627e-07 0 4.33125e-06 0 0)
(3.44757e-08 4.60408e-07 0 9.05503e-06 0 0)
(8.19036e-08 9.85658e-07 0 1.53653e-05 0 0)
(2.23862e-11 3.61644e-10 0 7.31904e-08 0 0)
(1.02645e-09 2.74494e-08 0 1.13564e-06 0 0)
(7.10602e-09 1.36556e-07 0 3.70801e-06 0 0)
(2.45347e-08 3.81488e-07 0 7.73975e-06 0 0)
(6.54636e-08 8.31258e-07 0 1.29683e-05 0 0)
(1.84741e-11 3.95538e-10 0 6.6569e-08 0 0)
(8.14638e-10 2.69988e-08 0 1.03502e-06 0 0)
(7.28772e-09 1.46009e-07 0 3.33616e-06 0 0)
(2.84541e-08 4.15198e-07 0 6.81292e-06 0 0)
(7.40782e-08 8.58195e-07 0 1.10876e-05 0 0)
(1.57389e-11 3.63187e-10 0 5.82436e-08 0 0)
(1.17665e-09 3.18777e-08 0 9.14056e-07 0 0)
(9.97799e-09 1.6633e-07 0 2.91606e-06 0 0)
(3.65279e-08 4.51542e-07 0 5.87216e-06 0 0)
(8.80151e-08 8.87009e-07 0 9.42396e-06 0 0)
(1.19979e-11 2.80679e-10 0 4.89338e-08 0 0)
(1.58038e-09 3.46957e-08 0 7.82067e-07 0 0)
(1.30002e-08 1.77956e-07 0 2.48705e-06 0 0)
(4.53487e-08 4.69957e-07 0 4.97481e-06 0 0)
(1.04154e-07 8.9868e-07 0 7.93445e-06 0 0)
(8.11433e-12 1.5962e-10 0 3.97908e-08 0 0)
(1.89293e-09 3.4871e-08 0 6.49932e-07 0 0)
(1.5778e-08 1.80026e-07 0 2.06958e-06 0 0)
(5.41925e-08 4.71309e-07 0 4.12951e-06 0 0)
(1.2228e-07 8.92641e-07 0 6.56883e-06 0 0)
(6.2622e-12 3.77621e-11 0 3.14062e-08 0 0)
(2.12815e-09 3.33071e-08 0 5.24029e-07 0 0)
(1.8383e-08 1.75275e-07 0 1.67438e-06 0 0)
(6.33598e-08 4.59627e-07 0 3.33982e-06 0 0)
(1.42819e-07 8.69884e-07 0 5.30744e-06 0 0)
(7.62435e-12 -5.88826e-11 0 2.40039e-08 0 0)
(2.32935e-09 3.07465e-08 0 4.0807e-07 0 0)
(2.09637e-08 1.65586e-07 0 1.30912e-06 0 0)
(7.3047e-08 4.36757e-07 0 2.6128e-06 0 0)
(1.65656e-07 8.29094e-07 0 4.15107e-06 0 0)
(1.22365e-11 -1.2176e-10 0 1.76382e-08 0 0)
(2.52234e-09 2.75644e-08 0 3.04497e-07 0 0)
(2.35531e-08 1.51773e-07 0 9.80649e-07 0 0)
(8.30645e-08 4.03009e-07 0 1.95902e-06 0 0)
(1.89889e-07 7.68166e-07 0 3.11256e-06 0 0)
(1.93165e-11 -1.52177e-10 0 1.23051e-08 0 0)
(2.71236e-09 2.39224e-08 0 2.15071e-07 0 0)
(2.60754e-08 1.34232e-07 0 6.95045e-07 0 0)
(9.29265e-08 3.58578e-07 0 1.38979e-06 0 0)
(2.14064e-07 6.86191e-07 0 2.20849e-06 0 0)
(2.76112e-11 -1.5558e-10 0 7.9861e-09 0 0)
(2.89176e-09 1.99079e-08 0 1.41007e-07 0 0)
(2.83984e-08 1.13406e-07 0 4.571e-07 0 0)
(1.02011e-07 3.04386e-07 0 9.14812e-07 0 0)
(2.36488e-07 5.8443e-07 0 1.45398e-06 0 0)
(3.57645e-11 -1.38416e-10 0 4.65428e-09 0 0)
(3.04603e-09 1.56023e-08 0 8.29295e-08 0 0)
(3.03748e-08 8.99406e-08 0 2.69649e-07 0 0)
(1.09725e-07 2.42263e-07 0 5.40117e-07 0 0)
(2.55608e-07 4.66351e-07 0 8.58597e-07 0 0)
(4.238e-11 -1.05917e-10 0 2.2685e-09 0 0)
(3.1568e-09 1.11062e-08 0 4.08284e-08 0 0)
(3.1876e-08 6.469e-08 0 1.3325e-07 0 0)
(1.15605e-07 1.74712e-07 0 2.67126e-07 0 0)
(2.70272e-07 3.3696e-07 0 4.24701e-07 0 0)
(4.51249e-11 -6.08355e-11 0 7.68265e-10 0 0)
(3.1977e-09 6.54527e-09 0 1.40724e-08 0 0)
(3.28124e-08 3.86208e-08 0 4.62063e-08 0 0)
(1.19389e-07 1.04537e-07 0 9.2705e-08 0 0)
(2.7986e-07 2.01907e-07 0 1.47413e-07 0 0)
(3.95038e-11 -1.49281e-11 0 8.29939e-11 0 0)
(3.10963e-09 2.07559e-09 0 1.46322e-09 0 0)
(3.31587e-08 1.26747e-08 0 4.92511e-09 0 0)
(1.21077e-07 3.44528e-08 0 9.92513e-09 0 0)
(2.84354e-07 6.66687e-08 0 1.58106e-08 0 0)
(3.9565e-11 1.16685e-11 0 1.03469e-10 0 0)
(3.11018e-09 -2.1406e-09 0 1.56286e-09 0 0)
(3.31577e-08 -1.29065e-08 0 5.12942e-09 0 0)
(1.21074e-07 -3.48823e-08 0 1.02171e-08 0 0)
(2.84343e-07 -6.72972e-08 0 1.61747e-08 0 0)
(4.5047e-11 5.87269e-11 0 8.29897e-10 0 0)
(3.19632e-09 -6.6107e-09 0 1.43804e-08 0 0)
(3.28075e-08 -3.88501e-08 0 4.68286e-08 0 0)
(1.19375e-07 -1.0496e-07 0 9.35914e-08 0 0)
(2.79825e-07 -2.02521e-07 0 1.48517e-07 0 0)
(4.22099e-11 1.04791e-10 0 2.37191e-09 0 0)
(3.15404e-09 -1.11681e-08 0 4.1351e-08 0 0)
(3.18671e-08 -6.49107e-08 0 1.34302e-07 0 0)
(1.15581e-07 -1.75117e-07 0 2.68622e-07 0 0)
(2.70213e-07 -3.37541e-07 0 4.26561e-07 0 0)
(3.55592e-11 1.3855e-10 0 4.79729e-09 0 0)
(3.04228e-09 -1.56579e-08 0 8.36689e-08 0 0)
(3.03628e-08 -9.01473e-08 0 2.71136e-07 0 0)
(1.09693e-07 -2.42641e-07 0 5.42224e-07 0 0)
(2.55528e-07 -4.66882e-07 0 8.61212e-07 0 0)
(2.7424e-11 1.57251e-10 0 8.16471e-09 0 0)
(2.88757e-09 -1.99555e-08 0 1.41961e-07 0 0)
(2.8385e-08 -1.13595e-07 0 4.59021e-07 0 0)
(1.01975e-07 -3.04732e-07 0 9.17523e-07 0 0)
(2.36391e-07 -5.84894e-07 0 1.45733e-06 0 0)
(1.92037e-11 1.5545e-10 0 1.25138e-08 0 0)
(2.70825e-09 -2.39609e-08 0 2.16237e-07 0 0)
(2.60621e-08 -1.34403e-07 0 6.97394e-07 0 0)
(9.28889e-08 -3.58886e-07 0 1.39309e-06 0 0)
(2.1395e-07 -6.86571e-07 0 2.21254e-06 0 0)
(1.22536e-11 1.26574e-10 0 1.78702e-08 0 0)
(2.51825e-09 -2.75906e-08 0 3.05867e-07 0 0)
(2.35383e-08 -1.51916e-07 0 9.83414e-07 0 0)
(8.30247e-08 -4.03268e-07 0 1.96286e-06 0 0)
(1.89767e-07 -7.68451e-07 0 3.11719e-06 0 0)
(7.8044e-12 6.51633e-11 0 2.42508e-08 0 0)
(2.32448e-09 -3.07518e-08 0 4.09621e-07 0 0)
(2.09422e-08 -1.65673e-07 0 1.31228e-06 0 0)
(7.29939e-08 -4.36926e-07 0 2.61714e-06 0 0)
(1.65529e-07 -8.29278e-07 0 4.1562e-06 0 0)
(6.59368e-12 -3.04923e-11 0 3.16584e-08 0 0)
(2.12291e-09 -3.32903e-08 0 5.25727e-07 0 0)
(1.83576e-08 -1.75304e-07 0 1.6779e-06 0 0)
(6.33059e-08 -4.59742e-07 0 3.3448e-06 0 0)
(1.42695e-07 -8.70039e-07 0 5.31364e-06 0 0)
(8.56158e-12 -1.52385e-10 0 4.00406e-08 0 0)
(1.88862e-09 -3.48421e-08 0 6.51746e-07 0 0)
(1.57572e-08 -1.80038e-07 0 2.07345e-06 0 0)
(5.41565e-08 -4.71451e-07 0 4.13514e-06 0 0)
(1.22181e-07 -8.92838e-07 0 6.57609e-06 0 0)
(1.25001e-11 -2.73988e-10 0 4.91766e-08 0 0)
(1.5769e-09 -3.46567e-08 0 7.83979e-07 0 0)
(1.2983e-08 -1.77952e-07 0 2.49132e-06 0 0)
(4.532e-08 -4.70105e-07 0 4.98128e-06 0 0)
(1.04063e-07 -8.98878e-07 0 7.9431e-06 0 0)
(1.62104e-11 -3.57651e-10 0 5.84764e-08 0 0)
(1.17394e-09 -3.18333e-08 0 9.16041e-07 0 0)
(9.96424e-09 -1.66318e-07 0 2.92069e-06 0 0)
(3.65064e-08 -4.51719e-07 0 5.87964e-06 0 0)
(8.79299e-08 -8.87185e-07 0 9.43428e-06 0 0)
(1.88027e-11 -3.91252e-10 0 6.67905e-08 0 0)
(8.11904e-10 -2.69503e-08 0 1.03704e-06 0 0)
(7.27505e-09 -1.45987e-07 0 3.34114e-06 0 0)
(2.84289e-08 -4.15335e-07 0 6.82143e-06 0 0)
(7.3988e-08 -8.58203e-07 0 1.10999e-05 0 0)
(2.25092e-11 -3.59266e-10 0 7.33983e-08 0 0)
(1.02251e-09 -2.74073e-08 0 1.13766e-06 0 0)
(7.09139e-09 -1.36529e-07 0 3.71326e-06 0 0)
(2.45032e-08 -3.81565e-07 0 7.74924e-06 0 0)
(6.53734e-08 -8.3097e-07 0 1.29828e-05 0 0)
(2.42031e-10 -3.4761e-09 0 9.68498e-08 0 0)
(5.71277e-09 -6.71656e-08 0 1.35648e-06 0 0)
(1.8541e-08 -2.26535e-07 0 4.33653e-06 0 0)
(3.44316e-08 -4.60174e-07 0 9.06503e-06 0 0)
(8.18003e-08 -9.84778e-07 0 1.53812e-05 0 0)
(8.7526e-07 5.46362e-06 0 3.72148e-05 0 0)
(2.03998e-06 1.00256e-05 0 5.24605e-05 0 0)
(3.58372e-06 1.53451e-05 0 6.91546e-05 0 0)
(5.24743e-06 2.08241e-05 -4.65373e-25 8.64961e-05 -1.19838e-24 9.9439e-43)
(6.98148e-06 2.6319e-05 0 0.000103485 0 0)
(8.7387e-06 3.16544e-05 0 0.000119281 0 0)
(1.0457e-05 3.66167e-05 4.7716e-23 0.000133117 1.24813e-22 3.83791e-39)
(1.20919e-05 4.10163e-05 -5.26703e-23 0.000144237 -1.36567e-22 3.90555e-39)
(1.35829e-05 4.46455e-05 -4.4706e-25 0.000151892 -1.15391e-24 2.19426e-43)
(1.50033e-05 4.7593e-05 -3.10914e-23 0.000156 -7.96531e-23 8.28193e-40)
(1.6279e-05 4.96312e-05 5.58385e-26 0.000155935 -9.63492e-26 1.68916e-42)
(1.74405e-05 5.06331e-05 1.61474e-25 0.000150963 2.2016e-25 1.99245e-42)
(1.85046e-05 5.06897e-05 1.84257e-23 0.000141901 4.4274e-23 1.97074e-40)
(1.94966e-05 4.98403e-05 1.8883e-23 0.000129391 4.4058e-23 1.60938e-40)
(2.04445e-05 4.81404e-05 4.54077e-23 0.000114366 1.02195e-22 7.214e-40)
(2.13751e-05 4.56457e-05 -4.67165e-23 9.79375e-05 -1.00852e-22 7.21528e-40)
(2.23204e-05 4.24118e-05 1.92691e-23 8.12678e-05 3.95743e-23 9.64707e-41)
(2.33131e-05 3.84841e-05 1.84161e-23 6.54197e-05 3.56605e-23 6.93289e-41)
(2.43886e-05 3.39165e-05 -1.00604e-24 5.12916e-05 -1.85989e-24 2.11827e-42)
(2.55924e-05 2.87828e-05 -1.08636e-24 3.95345e-05 -1.80397e-24 1.8355e-42)
(2.70126e-05 2.31988e-05 -3.77962e-23 3.05046e-05 -5.69363e-23 2.43811e-40)
(2.86571e-05 1.71582e-05 5.81532e-25 2.40762e-05 7.64955e-25 4.89977e-44)
(3.04757e-05 1.07902e-05 -7.10837e-23 2.02658e-05 -8.09398e-23 6.36426e-40)
(3.24688e-05 4.25068e-06 7.22965e-23 1.87946e-05 6.7823e-23 6.2521e-40)
(3.4614e-05 -2.3116e-06 0 1.92449e-05 0 0)
(3.68619e-05 -8.75602e-06 0 2.11415e-05 0 0)
(3.91513e-05 -1.49527e-05 1.11202e-24 2.40119e-05 3.77741e-25 1.02262e-43)
(4.14475e-05 -2.07727e-05 0 2.74253e-05 0 0)
(4.38049e-05 -2.60603e-05 0 3.09823e-05 0 0)
(4.59537e-05 -3.06499e-05 0 3.42526e-05 0 0)
(1.36894e-06 7.52632e-06 0 4.46297e-05 0 0)
(2.68392e-06 1.24254e-05 0 6.09772e-05 0 0)
(4.20576e-06 1.75927e-05 0 7.73563e-05 0 0)
(5.82659e-06 2.28278e-05 4.64641e-25 9.35876e-05 1.18988e-24 8.84481e-43)
(7.5291e-06 2.80577e-05 0 0.000109068 0 0)
(9.26014e-06 3.31042e-05 0 0.000123161 0 0)
(1.09666e-05 3.77793e-05 -4.57465e-23 0.000135216 -1.17078e-22 3.31698e-39)
(1.26148e-05 4.19232e-05 5.11274e-23 0.00014459 1.28946e-22 3.47374e-39)
(1.41573e-05 4.53696e-05 4.30014e-25 0.000150688 1.07558e-24 1.9341e-43)
(1.56686e-05 4.82316e-05 0 0.000153634 0 0)
(1.70639e-05 5.02152e-05 0 0.000152533 0 0)
(1.83999e-05 5.1304e-05 3.3144e-23 0.000147165 7.80423e-23 6.08088e-40)
(1.96573e-05 5.15191e-05 -3.48596e-23 0.000138228 -7.95969e-23 6.11919e-40)
(2.08532e-05 5.08836e-05 0 0.000126308 0 0)
(2.19982e-05 4.94253e-05 1.27378e-22 0.000112218 2.72243e-22 5.32436e-39)
(2.31014e-05 4.7175e-05 -1.31326e-22 9.69045e-05 -2.6966e-22 5.32093e-39)
(2.41782e-05 4.41695e-05 0 8.13466e-05 0 0)
(2.52527e-05 4.04536e-05 -3.744e-23 6.64599e-05 -6.95203e-23 2.94486e-40)
(2.6357e-05 3.6082e-05 3.83076e-23 5.30112e-05 6.68722e-23 2.97395e-40)
(2.75379e-05 3.1134e-05 0 4.15822e-05 0 0)
(2.88328e-05 2.56873e-05 0 3.25109e-05 0 0)
(3.02933e-05 1.98008e-05 -5.65523e-25 2.57992e-05 -7.47652e-25 4.31164e-44)
(3.19304e-05 1.36034e-05 7.04322e-23 2.14676e-05 8.02349e-23 5.75668e-40)
(3.3714e-05 7.21228e-06 -7.25229e-23 1.93247e-05 -6.95551e-23 5.85286e-40)
(3.56345e-05 7.68486e-07 0 1.90545e-05 0 0)
(3.76601e-05 -5.59539e-06 0 2.02679e-05 0 0)
(3.97378e-05 -1.17619e-05 -1.05908e-24 2.25539e-05 -4.58299e-25 9.07202e-44)
(4.18147e-05 -1.76281e-05 0 2.55226e-05 0 0)
(4.39319e-05 -2.31e-05 0 2.88307e-05 0 0)
(4.60154e-05 -2.82401e-05 0 3.22676e-05 0 0)
(1.9036e-06 9.47553e-06 0 5.04437e-05 0 0)
(3.19491e-06 1.41376e-05 0 6.61168e-05 0 0)
(4.70037e-06 1.9108e-05 0 8.15519e-05 0 0)
(6.34241e-06 2.42241e-05 -3.14932e-23 9.67505e-05 -7.96994e-23 3.58902e-39)
(8.07873e-06 2.93425e-05 3.66256e-23 0.000111141 9.1508e-23 3.67375e-39)
(9.8585e-06 3.42824e-05 -4.34235e-23 0.000124098 -1.0811e-22 3.68249e-39)
(1.16469e-05 3.88858e-05 4.86035e-23 0.000135 1.18851e-22 3.75208e-39)
(1.34189e-05 4.301e-05 -8.50524e-25 0.00014327 -2.05452e-24 8.70981e-43)
(1.51478e-05 4.65308e-05 0 0.000148443 0 0)
(1.68962e-05 4.95393e-05 0 0.000150683 0 0)
(1.8584e-05 5.1712e-05 1.06021e-24 0.000148985 2.37304e-24 7.20161e-43)
(2.02675e-05 5.30792e-05 0 0.000143492 0 0)
(2.19009e-05 5.36019e-05 0 0.000134772 0 0)
(2.34848e-05 5.32769e-05 3.11052e-25 0.000123374 6.29805e-25 3.4806e-44)
(2.50048e-05 5.20992e-05 2.29938e-22 0.000110033 4.49108e-22 1.51493e-38)
(2.64448e-05 5.00729e-05 -2.38014e-22 9.55918e-05 -4.46045e-22 1.5149e-38)
(2.7797e-05 4.72176e-05 -3.35444e-25 8.09104e-05 -6.01566e-25 2.48772e-44)
(2.90682e-05 4.35715e-05 0 6.67914e-05 0 0)
(3.02825e-05 3.91949e-05 0 5.39156e-05 0 0)
(3.14836e-05 3.41732e-05 -1.34501e-24 4.27994e-05 -2.01309e-24 2.69662e-43)
(3.2723e-05 2.86069e-05 0 3.37653e-05 0 0)
(3.40497e-05 2.26126e-05 0 2.69616e-05 0 0)
(3.5489e-05 1.62932e-05 1.28127e-24 2.23387e-05 1.40343e-24 1.73255e-43)
(3.70448e-05 9.78354e-06 8.0523e-23 1.97675e-05 7.50616e-23 6.02554e-40)
(3.87159e-05 3.22429e-06 -8.11826e-23 1.90014e-05 -6.25198e-23 5.9138e-40)
(4.04862e-05 -3.25223e-06 8.07336e-23 1.97154e-05 4.89424e-23 5.05863e-40)
(4.23242e-05 -9.52784e-06 -8.15908e-23 2.15495e-05 -3.61835e-23 4.9326e-40)
(4.41849e-05 -1.54981e-05 0 2.41433e-05 0 0)
(4.60407e-05 -2.10698e-05 0 2.71657e-05 0 0)
(4.75738e-05 -2.63899e-05 0 3.05166e-05 0 0)
(2.43244e-06 1.1322e-05 0 5.59187e-05 0 0)
(3.70672e-06 1.58114e-05 4.69278e-23 7.09487e-05 1.20191e-22 1.66582e-38)
(5.252e-06 2.07209e-05 -2.87592e-23 8.55639e-05 -7.16699e-23 4.39737e-39)
(6.96097e-06 2.57997e-05 -7.05386e-23 9.97844e-05 -1.74613e-22 1.73214e-38)
(8.78152e-06 3.0874e-05 8.23545e-23 0.000113066 2.00611e-22 1.71059e-38)
(1.06807e-05 3.57924e-05 -4.63219e-23 0.000124831 -1.10444e-22 4.15391e-39)
(1.26413e-05 4.04247e-05 0 0.000134523 0 0)
(1.46387e-05 4.46302e-05 -1.79837e-24 0.000141644 -4.06783e-24 3.68744e-42)
(1.66987e-05 4.83733e-05 0 0.000145917 0 0)
(1.88099e-05 5.16042e-05 0 0.000147364 0 0)
(2.09541e-05 5.4079e-05 -4.0216e-23 0.000145102 -8.27298e-23 8.74109e-40)
(2.31466e-05 5.58031e-05 4.07431e-23 0.000139503 8.018e-23 7.79508e-40)
(2.53281e-05 5.67001e-05 0 0.000131015 0 0)
(2.7474e-05 5.67361e-05 -3.57314e-25 0.000120157 -6.51369e-25 3.83641e-44)
(2.95378e-05 5.58738e-05 3.54983e-22 0.00010759 6.22007e-22 3.04033e-38)
(3.14709e-05 5.40908e-05 -3.68954e-22 9.40498e-05 -6.19252e-22 3.0402e-38)
(3.32367e-05 5.13884e-05 3.89236e-25 8.02829e-05 6.25902e-25 2.74198e-44)
(3.48203e-05 4.77975e-05 0 6.69826e-05 0 0)
(3.62341e-05 4.3382e-05 4.9855e-23 5.47439e-05 7.23111e-23 3.29807e-40)
(3.75196e-05 3.82383e-05 -4.71926e-23 4.40301e-05 -6.43632e-23 2.88403e-40)
(3.87381e-05 3.24872e-05 -1.54726e-24 3.5151e-05 -1.94842e-24 2.65519e-43)
(3.99505e-05 2.6261e-05 0 2.82625e-05 0 0)
(4.12013e-05 1.96931e-05 3.00472e-24 2.33762e-05 3.06788e-24 8.17964e-43)
(4.25199e-05 1.29299e-05 0 2.0402e-05 0 0)
(4.39218e-05 6.11816e-06 -9.11796e-23 1.91505e-05 -6.84318e-23 6.092e-40)
(4.54058e-05 -6.06019e-07 1.78056e-22 1.93567e-05 1.08151e-22 2.20494e-39)
(4.69614e-05 -7.12179e-06 -1.7495e-22 2.07125e-05 -8.10642e-23 1.96741e-39)
(4.85717e-05 -1.33213e-05 -8.46352e-23 2.28944e-05 -2.73418e-23 4.04311e-40)
(5.0178e-05 -1.91116e-05 1.74074e-22 2.55922e-05 3.2284e-23 1.70523e-39)
(5.10478e-05 -2.47315e-05 0 2.88001e-05 0 0)
(3.0127e-06 1.3245e-05 0 6.12858e-05 0 0)
(4.3258e-06 1.76826e-05 -5.28739e-23 7.56064e-05 -1.34358e-22 1.91579e-38)
(5.957e-06 2.2588e-05 6.26554e-23 8.92979e-05 1.54502e-22 1.85186e-38)
(7.77672e-06 2.76605e-05 0 0.000102412 0 0)
(9.74305e-06 3.27401e-05 0 0.000114463 0 0)
(1.18436e-05 3.77052e-05 -1.55707e-24 0.000124934 -3.50864e-24 4.26417e-42)
(1.40744e-05 4.24402e-05 0 0.000133341 0 0)
(1.64168e-05 4.68089e-05 2.00725e-24 0.000139266 4.22088e-24 4.05007e-42)
(1.89266e-05 5.08299e-05 -3.5328e-23 0.000142631 -7.11656e-23 9.50066e-40)
(2.15529e-05 5.43425e-05 3.90244e-23 0.00014323 7.50443e-23 9.64423e-40)
(2.4317e-05 5.71765e-05 4.387e-23 0.00014047 8.1069e-23 8.93857e-40)
(2.71875e-05 5.92899e-05 -4.61104e-23 0.000134796 -8.09193e-23 8.47489e-40)
(3.00972e-05 6.05905e-05 -1.53006e-24 0.000126595 -2.57247e-24 7.28832e-43)
(3.29866e-05 6.10125e-05 8.10556e-25 0.000116347 1.30647e-24 1.66602e-43)
(3.577e-05 6.04894e-05 5.08758e-22 0.000104635 7.88953e-22 5.14601e-38)
(3.83591e-05 5.8974e-05 -5.3064e-22 9.20891e-05 -7.87815e-22 5.14577e-38)
(4.06816e-05 5.64492e-05 -9.0208e-25 7.93389e-05 -1.28635e-24 1.21653e-43)
(4.2696e-05 5.29358e-05 1.83022e-24 6.6966e-05 2.49661e-24 4.32768e-43)
(4.4401e-05 4.84962e-05 -5.84647e-23 5.54748e-05 -7.58256e-23 3.68444e-40)
(4.58353e-05 4.3233e-05 5.71373e-23 4.52695e-05 7.01251e-23 3.43182e-40)
(4.70687e-05 3.72806e-05 5.93247e-23 3.66378e-05 6.77739e-23 3.03975e-40)
(4.81808e-05 3.07891e-05 -5.7494e-23 2.97441e-05 -6.0669e-23 2.81379e-40)
(4.9242e-05 2.39169e-05 -3.48123e-24 2.4642e-05 -3.3222e-24 8.98367e-43)
(5.03074e-05 1.68265e-05 0 2.12883e-05 0 0)
(5.14133e-05 9.67619e-06 3.37461e-24 1.95508e-05 2.42789e-24 7.22046e-43)
(5.25747e-05 2.61013e-06 0 1.92247e-05 0 0)
(5.37994e-05 -4.24326e-06 0 2.0057e-05 0 0)
(5.5101e-05 -1.07679e-05 1.98562e-22 2.17682e-05 6.95875e-23 1.98661e-39)
(5.64199e-05 -1.68701e-05 -1.92202e-22 2.40743e-05 -4.38307e-23 1.81416e-39)
(5.65621e-05 -2.29378e-05 0 2.70503e-05 0 0)
(3.71086e-06 1.53569e-05 -4.64819e-23 6.63664e-05 -1.12719e-22 1.88464e-38)
(5.12738e-06 1.9829e-05 8.6366e-23 7.97703e-05 2.14135e-22 4.64398e-38)
(6.8956e-06 2.47635e-05 -3.4237e-23 9.23831e-05 -8.15269e-23 5.00941e-39)
(8.88699e-06 2.98665e-05 0 0.000104265 0 0)
(1.10779e-05 3.50026e-05 -4.78653e-23 0.000114993 -1.05242e-22 4.74457e-39)
(1.34744e-05 4.00686e-05 5.3439e-23 0.000124104 1.11856e-22 4.5649e-39)
(1.60843e-05 4.4956e-05 -6.09519e-23 0.000131191 -1.22119e-22 4.22064e-39)
(1.8897e-05 4.95354e-05 7.06554e-23 0.000135923 1.3378e-22 4.5861e-39)
(2.19956e-05 5.38603e-05 0 0.000138373 0 0)
(2.53004e-05 5.76766e-05 2.72244e-24 0.000138134 4.65776e-24 3.93807e-42)
(2.88552e-05 6.08807e-05 -4.8217e-23 0.000134957 -7.8823e-23 9.14297e-40)
(3.25876e-05 6.33864e-05 2.63494e-23 0.000129272 4.0413e-23 2.50533e-40)
(3.64161e-05 6.50915e-05 3.63129e-24 0.000121431 5.09916e-24 6.02809e-42)
(4.02392e-05 6.59026e-05 2.91756e-23 0.00011187 4.11817e-23 1.846e-40)
(4.39246e-05 6.57292e-05 6.96001e-22 0.000101096 9.48217e-22 7.88194e-38)
(4.7337e-05 6.45026e-05 -7.27867e-22 8.96338e-05 -9.5033e-22 7.88122e-38)
(5.03618e-05 6.2187e-05 3.4678e-23 7.79972e-05 4.3668e-23 1.38483e-40)
(5.29263e-05 5.87899e-05 -4.60122e-24 6.66571e-05 -5.5676e-24 4.14452e-42)
(5.50123e-05 5.43668e-05 3.39865e-23 5.60251e-05 3.92141e-23 9.12179e-41)
(5.66566e-05 4.90202e-05 -6.92543e-23 4.64409e-05 -7.62346e-23 4.0588e-40)
(5.79394e-05 4.28913e-05 -4.27457e-24 3.81628e-05 -4.41825e-24 1.32989e-42)
(5.89624e-05 3.61453e-05 0 3.13599e-05 0 0)
(5.98259e-05 2.8959e-05 1.30638e-22 2.61152e-05 1.14763e-22 9.98252e-40)
(6.06146e-05 2.15121e-05 -1.33667e-22 2.24299e-05 -1.05816e-22 1.03982e-39)
(6.13904e-05 1.39769e-05 1.28427e-22 2.02273e-05 8.87207e-23 8.37271e-40)
(6.21885e-05 6.50923e-06 -1.23286e-22 1.93625e-05 -7.27117e-23 7.66815e-40)
(6.30347e-05 -7.50527e-07 -7.50872e-24 1.96395e-05 -3.58144e-24 2.58818e-42)
(6.39709e-05 -7.67231e-06 -1.15002e-22 2.08285e-05 -4.28529e-23 5.61357e-40)
(6.49497e-05 -1.41542e-05 3.34123e-22 2.26779e-05 8.75421e-23 4.51245e-39)
(6.42948e-05 -2.07857e-05 -2.33275e-22 2.53091e-05 -3.34545e-23 2.18008e-39)
(4.59855e-06 1.77317e-05 2.49709e-23 7.09207e-05 5.90119e-23 4.77578e-39)
(6.19284e-06 2.23054e-05 -3.31853e-23 8.31951e-05 -7.85364e-23 6.09704e-39)
(8.1639e-06 2.73035e-05 -4.01935e-23 9.45992e-05 -9.05218e-23 5.93171e-39)
(1.04054e-05 3.24748e-05 4.77988e-23 0.000105157 1.01708e-22 6.09318e-39)
(1.2915e-05 3.77061e-05 -5.28642e-23 0.000114488 -1.06805e-22 5.135e-39)
(1.57158e-05 4.29045e-05 6.50222e-23 0.000122197 1.23489e-22 5.9369e-39)
(1.88265e-05 4.79647e-05 2.13156e-24 0.000127952 3.77289e-24 4.83708e-42)
(2.22555e-05 5.27775e-05 0 0.000131527 0 0)
(2.60945e-05 5.73924e-05 -4.45515e-23 0.000133061 -7.11689e-23 1.12242e-39)
(3.02563e-05 6.1502e-05 -3.07953e-24 0.000132042 -5.21527e-24 1.05542e-42)
(3.4785e-05 6.50536e-05 -3.34828e-24 0.000128539 -5.38623e-24 8.84998e-43)
(3.95753e-05 6.79285e-05 6.1931e-23 0.000122922 8.33832e-23 1.07158e-39)
(4.45214e-05 7.00166e-05 3.03443e-23 0.000115521 3.92945e-23 1.87501e-40)
(4.94731e-05 7.12048e-05 -5.19715e-23 0.000106727 -6.41843e-23 4.69309e-40)
(5.42446e-05 7.13845e-05 9.36415e-22 9.69659e-05 1.11728e-21 1.17288e-37)
(5.86464e-05 7.04681e-05 -9.42802e-22 8.66653e-05 -1.08089e-21 1.0834e-37)
(6.25157e-05 6.84014e-05 -5.88641e-23 7.62262e-05 -6.53688e-23 3.34643e-40)
(6.57445e-05 6.51751e-05 4.51842e-23 6.60121e-05 4.84281e-23 1.79495e-40)
(6.82962e-05 6.08321e-05 8.04147e-23 5.63426e-05 8.28998e-23 4.54779e-40)
(7.02061e-05 5.5468e-05 4.28297e-24 4.74908e-05 4.00275e-24 6.2768e-43)
(7.15681e-05 4.92241e-05 4.132e-24 3.9679e-05 3.58914e-24 5.85471e-43)
(7.25089e-05 4.22731e-05 -7.92806e-23 3.30723e-05 -6.98812e-23 3.51411e-40)
(7.31617e-05 3.48051e-05 0 2.77744e-05 0 0)
(7.36457e-05 2.70148e-05 -4.79891e-24 2.38256e-05 -3.51809e-24 1.05264e-42)
(7.40534e-05 1.90892e-05 1.36742e-22 2.12005e-05 9.00784e-23 7.7561e-40)
(7.44439e-05 1.11978e-05 -1.43968e-22 1.9811e-05 -8.28016e-23 8.62761e-40)
(7.48641e-05 3.49448e-06 1.37426e-22 1.95197e-05 6.64116e-23 7.02975e-40)
(7.53831e-05 -3.8708e-06 -1.27336e-22 2.0148e-05 -4.97564e-23 6.02617e-40)
(7.59715e-05 -1.07821e-05 -1.23441e-22 2.14849e-05 -3.59389e-23 5.05206e-40)
(7.44574e-05 -1.80712e-05 1.38605e-22 2.36568e-05 2.58698e-23 6.50232e-40)
(5.76404e-06 2.04299e-05 0 7.47185e-05 0 0)
(7.62363e-06 2.51555e-05 -3.26701e-23 8.56858e-05 -7.2085e-23 4.9939e-39)
(9.87809e-06 3.02438e-05 4.74311e-23 9.57819e-05 9.79909e-23 7.42069e-39)
(1.24639e-05 3.55077e-05 -5.33677e-23 0.000104941 -1.03581e-22 6.37714e-39)
(1.54016e-05 4.08507e-05 5.89402e-23 0.000112826 1.06526e-22 5.80239e-39)
(1.87305e-05 4.61862e-05 -6.42394e-23 0.000119113 -1.08955e-22 4.78674e-39)
(2.24779e-05 5.14082e-05 7.36047e-23 0.000123549 1.1576e-22 4.91512e-39)
(2.66986e-05 5.64596e-05 5.53299e-24 0.000126032 8.12646e-24 2.05474e-41)
(3.14356e-05 6.13017e-05 3.12833e-24 0.000126644 4.31765e-24 4.93252e-42)
(3.66488e-05 6.56702e-05 3.50467e-24 0.000124952 4.55792e-24 4.69623e-42)
(4.23458e-05 6.95219e-05 3.93625e-24 0.000121226 4.86435e-24 4.44629e-42)
(4.83987e-05 7.2723e-05 -2.15465e-24 0.000115767 -2.529e-24 1.03816e-42)
(5.46651e-05 7.51588e-05 3.94162e-23 0.000108889 4.43407e-23 2.65641e-40)
(6.09396e-05 7.67052e-05 -1.99305e-23 0.000100936 -2.12247e-23 6.46221e-41)
(6.69761e-05 7.7241e-05 1.15692e-21 9.2259e-05 1.20888e-21 1.47689e-37)
(7.25246e-05 7.66625e-05 -1.2571e-21 8.31873e-05 -1.26731e-21 1.58625e-37)
(7.73699e-05 7.48964e-05 -2.25803e-23 7.40176e-05 -2.22456e-23 3.54316e-41)
(8.13661e-05 7.19131e-05 4.07488e-23 6.50107e-05 3.88408e-23 1.21238e-40)
(8.44573e-05 6.7737e-05 -2.93738e-24 5.63975e-05 -2.71207e-24 5.18509e-43)
(8.6679e-05 6.24493e-05 -1.17529e-23 4.83834e-05 -1.04605e-23 7.35373e-42)
(8.81412e-05 5.61835e-05 -5.85189e-24 4.11499e-05 -4.97774e-24 1.63695e-42)
(8.9e-05 4.91126e-05 -5.77605e-24 3.485e-05 -4.6515e-24 1.45311e-42)
(8.94248e-05 4.14339e-05 -1.13383e-23 2.95999e-05 -8.53731e-24 5.1618e-42)
(8.95729e-05 3.33534e-05 1.86102e-22 2.54714e-05 1.29234e-22 1.25825e-39)
(8.95716e-05 2.50715e-05 -1.83435e-22 2.24849e-05 -1.15843e-22 1.22326e-39)
(8.95078e-05 1.67715e-05 1.65416e-22 2.06053e-05 9.21994e-23 8.83453e-40)
(8.94546e-05 8.62233e-06 -1.52665e-22 1.97517e-05 -7.37196e-23 7.5773e-40)
(8.95093e-05 7.95606e-07 1.35863e-22 1.97989e-05 5.46187e-23 5.38215e-40)
(8.96599e-05 -6.57303e-06 -1.6236e-22 2.05805e-05 -5.23573e-23 7.70441e-40)
(8.72399e-05 -1.4587e-05 0 2.21906e-05 0 0)
(7.31678e-06 2.34901e-05 0 7.75434e-05 0 0)
(9.54492e-06 2.83949e-05 -2.42748e-24 8.70584e-05 -4.82621e-24 2.44391e-41)
(1.21785e-05 3.35835e-05 4.14993e-23 9.57734e-05 7.706e-23 4.69933e-39)
(1.52183e-05 3.89411e-05 6.66007e-27 0.000103482 3.34085e-25 2.5086e-42)
(1.87089e-05 4.43855e-05 -6.62161e-23 0.000109899 -1.0512e-22 6.30045e-39)
(2.27062e-05 4.98337e-05 -4.85676e-24 0.000114773 -7.18835e-24 2.37848e-41)
(2.72457e-05 5.51786e-05 -5.46836e-24 0.000117924 -7.42047e-24 2.31388e-41)
(3.24407e-05 6.04312e-05 4.40264e-23 0.0001194 5.61537e-23 1.06257e-39)
(3.82587e-05 6.54253e-05 -6.07251e-23 0.000119132 -7.20503e-23 1.60474e-39)
(4.47259e-05 6.99959e-05 -5.67591e-26 0.000116909 -9.4959e-26 1.13926e-46)
(5.17927e-05 7.40779e-05 3.55369e-23 0.000113059 3.78901e-23 2.98934e-40)
(5.93151e-05 7.75485e-05 -3.89706e-23 0.000107854 -3.91789e-23 3.02534e-40)
(6.71014e-05 8.02908e-05 1.85013e-23 0.000101584 1.80632e-23 4.89738e-41)
(7.48846e-05 8.21767e-05 -2.26926e-23 9.45438e-05 -2.1207e-23 6.4781e-41)
(8.2352e-05 8.30776e-05 1.47501e-21 8.70097e-05 1.35091e-21 2.0164e-37)
(8.91885e-05 8.28755e-05 -1.54682e-21 7.92217e-05 -1.37449e-21 2.01643e-37)
(9.51233e-05 8.14767e-05 -2.60673e-23 7.13784e-05 -2.27388e-23 4.3455e-41)
(9.99717e-05 7.88272e-05 3.01031e-23 6.36456e-05 2.56351e-23 5.43447e-41)
(0.000103659 7.49264e-05 -5.06162e-23 5.61694e-05 -4.20249e-23 1.21346e-40)
(0.000106224 6.98337e-05 6.80263e-23 4.90887e-05 5.49477e-23 2.11611e-40)
(0.000107796 6.36668e-05 -4.24547e-26 4.25409e-05 -2.23156e-26 6.21864e-47)
(0.000108563 5.65915e-05 -1.06237e-22 3.66597e-05 -7.88122e-23 3.9034e-40)
(0.000108735 4.88059e-05 1.1818e-22 3.15656e-05 8.33287e-23 4.80942e-40)
(0.000108512 4.05231e-05 1.28612e-23 2.73544e-05 8.40872e-24 5.08593e-42)
(0.000108058 3.1955e-05 1.2364e-23 2.40844e-05 7.47808e-24 4.46175e-42)
(0.000107493 2.32969e-05 -1.92019e-22 2.17692e-05 -1.04126e-22 9.84136e-40)
(0.000106919 1.47346e-05 2.5808e-24 2.03796e-05 1.55433e-24 2.89299e-42)
(0.000106466 6.4607e-06 2.0494e-22 1.98452e-05 8.46834e-23 1.07206e-39)
(0.000106137 -1.36748e-06 0 2.00467e-05 0 0)
(0.000102786 -1.01383e-05 0 2.10124e-05 0 0)
(9.39213e-06 2.69195e-05 0 7.91905e-05 0 0)
(1.21089e-05 3.20004e-05 4.73337e-23 8.71462e-05 8.37869e-23 7.5408e-39)
(1.52314e-05 3.72734e-05 6.58619e-26 9.44316e-05 3.89668e-25 2.31985e-42)
(1.88492e-05 4.26981e-05 -2.13025e-26 0.00010067 2.99289e-25 2.78787e-42)
(2.30347e-05 4.82056e-05 -1.44587e-22 0.000105629 -1.97854e-22 2.51866e-38)
(2.78573e-05 5.37147e-05 8.67193e-23 0.000109136 1.08814e-22 6.7618e-39)
(3.33688e-05 5.91289e-05 6.27406e-24 0.000111088 7.32446e-24 2.52765e-41)
(3.97093e-05 6.44872e-05 0 0.000111633 0 0)
(4.68155e-05 6.95535e-05 -6.05178e-23 0.000110585 -6.16743e-23 1.28311e-39)
(5.47402e-05 7.42437e-05 6.76855e-23 0.000107972 6.41411e-23 1.31312e-39)
(6.33836e-05 7.84806e-05 -4.0169e-23 0.000104113 -3.66491e-23 3.27873e-40)
(7.25772e-05 8.21588e-05 -1.01715e-25 9.92636e-05 -5.69332e-25 6.60106e-43)
(8.20723e-05 8.51675e-05 4.78234e-23 9.36832e-05 3.99442e-23 3.08907e-40)
(9.15339e-05 8.73814e-05 -1.60215e-24 8.76176e-05 -1.30951e-24 2.65627e-43)
(0.000100578 8.86678e-05 1.80741e-21 8.12734e-05 1.45392e-21 2.57712e-37)
(0.000108819 8.88953e-05 -1.89548e-21 7.48075e-05 -1.48965e-21 2.57948e-37)
(0.000115932 8.79476e-05 1.85768e-24 6.83304e-05 1.44226e-24 1.96263e-43)
(0.000121693 8.57415e-05 6.09209e-23 6.19211e-05 4.66028e-23 1.70662e-40)
(0.00012601 8.22447e-05 -1.63716e-25 5.56472e-05 -1.93383e-25 6.70882e-43)
(0.000128929 7.7487e-05 -7.78522e-23 4.9583e-05 -5.73271e-23 2.32378e-40)
(0.000130602 7.15631e-05 1.31283e-22 4.382e-05 9.36885e-23 5.46788e-40)
(0.000131254 6.46242e-05 -1.22993e-22 3.8467e-05 -8.50235e-23 4.74242e-40)
(0.00013114 5.6863e-05 0 3.36411e-05 0 0)
(0.000130504 4.84953e-05 -1.46371e-23 2.94535e-05 -9.11551e-24 5.55604e-42)
(0.000129552 3.97412e-05 2.28172e-22 2.59929e-05 1.31522e-22 1.22094e-39)
(0.000128439 3.08075e-05 -4.59241e-22 2.33144e-05 -2.43149e-22 4.83756e-39)
(0.000127299 2.18966e-05 2.70913e-24 2.14365e-05 1.69155e-24 3.18564e-42)
(0.000126296 1.32216e-05 -1.05343e-23 2.03412e-05 -4.0763e-24 1.78587e-42)
(0.000125447 4.96005e-06 2.03035e-22 1.99586e-05 7.33425e-23 8.3945e-40)
(0.000121167 -4.55764e-06 0 2.02244e-05 0 0)
(1.21534e-05 3.06811e-05 5.21278e-24 7.94787e-05 8.57813e-24 1.19802e-40)
(1.54947e-05 3.58979e-05 0 8.5814e-05 0 0)
(1.92301e-05 4.12114e-05 3.83173e-24 9.16514e-05 5.33704e-24 2.88247e-41)
(2.35646e-05 4.66484e-05 -6.71766e-23 9.64355e-05 -8.50054e-23 6.33864e-39)
(2.85995e-05 5.21508e-05 8.38183e-23 9.9989e-05 9.61524e-23 7.46396e-39)
(3.44148e-05 5.76391e-05 -9.75173e-23 0.000102212 -1.03365e-22 7.04275e-39)
(4.10939e-05 6.30475e-05 1.11716e-22 0.000103091 1.08091e-22 7.23783e-39)
(4.87585e-05 6.839e-05 6.38878e-23 0.000102786 5.81926e-23 1.66749e-39)
(5.73633e-05 7.34325e-05 -1.53743e-22 0.000101102 -1.30828e-22 7.47251e-39)
(6.69454e-05 7.81486e-05 -5.31294e-24 9.82486e-05 -5.22206e-24 1.62097e-42)
(7.7366e-05 8.24612e-05 8.42255e-23 9.45033e-05 6.44088e-23 1.36775e-39)
(8.84193e-05 8.62876e-05 -4.95397e-23 9.0107e-05 -3.71594e-23 3.36133e-40)
(9.97928e-05 8.95306e-05 2.66909e-23 8.52899e-05 1.90034e-23 9.24989e-41)
(0.000111078 9.20734e-05 4.51125e-23 8.02478e-05 3.21366e-23 1.84968e-40)
(0.000121814 9.37819e-05 2.15724e-21 7.51231e-05 1.52777e-21 3.1748e-37)
(0.000131548 9.45103e-05 -2.29057e-21 6.99989e-05 -1.59788e-21 3.26302e-37)
(0.000139895 9.41164e-05 4.82231e-23 6.49082e-05 3.35311e-23 1.11867e-40)
(0.000146597 9.24824e-05 3.45049e-23 5.98529e-05 2.38264e-23 4.19453e-41)
(0.00015155 8.95372e-05 -7.00992e-23 5.48292e-05 -4.79643e-23 1.85063e-40)
(0.000154808 8.52739e-05 1.58635e-22 4.98502e-05 1.0679e-22 7.56126e-40)
(0.000156553 7.97565e-05 8.3508e-24 4.49606e-05 5.06658e-24 1.01022e-42)
(0.000157051 7.3115e-05 -2.61606e-22 4.02398e-05 -1.68187e-22 1.74106e-39)
(0.000156603 6.55314e-05 1.37745e-22 3.57943e-05 8.55965e-23 4.6159e-40)
(0.000155504 5.72198e-05 2.67799e-22 3.17423e-05 1.57692e-22 1.50417e-39)
(0.000154003 4.84054e-05 -2.63118e-22 2.81953e-05 -1.46801e-22 1.46278e-39)
(0.000152293 3.93054e-05 2.52964e-22 2.52419e-05 1.30455e-22 1.19835e-39)
(0.000150543 3.01371e-05 -2.63335e-22 2.29437e-05 -1.24718e-22 1.30714e-39)
(0.00014895 2.11352e-05 1.50179e-23 2.133e-05 6.34255e-24 3.88585e-42)
(0.000147546 1.24944e-05 0 2.03794e-05 0 0)
(0.000142363 2.28387e-06 -2.94363e-23 1.9921e-05 -8.83092e-24 1.34538e-41)
(1.57927e-05 3.46838e-05 -6.07193e-24 7.82646e-05 -8.68769e-24 1.29563e-40)
(1.9909e-05 3.99576e-05 6.06222e-23 8.29705e-05 7.74569e-23 8.89343e-39)
(2.43926e-05 4.52383e-05 -6.82586e-23 8.73816e-05 -7.83649e-23 8.17676e-39)
(2.95931e-05 5.06031e-05 -5.08226e-24 9.07676e-05 -5.34734e-24 3.12844e-41)
(3.56401e-05 5.60024e-05 -5.93558e-24 9.30035e-05 -5.67213e-24 3.10919e-41)