/*--------------------------------*- C++ -*----------------------------------*\
  =========                 |
  \\      /  F ield         | OpenFOAM: The Open Source CFD Toolbox
   \\    /   O peration     | Website:  https://openfoam.org
    \\  /    A nd           | Version:  12
     \\/     M anipulation  |
\*---------------------------------------------------------------------------*/
FoamFile
{
    format      ascii;
    class       volScalarField;
    location    "100";
    object      p;
}
// * * * * * * * * * * * * * * * * * * * * * * * * * * * * * * * * * * * * * //

dimensions      [0 2 -2 0 0 0 0];

internalField   nonuniform List<scalar> 
6750
(
0.0191858
0.0191639
0.0191349
0.0189714
0.0179377
0.0207023
0.0206653
0.020537
0.0202698
0.0199087
0.0224948
0.0224349
0.0223033
0.0221041
0.0219502
0.0243761
0.0242812
0.024156
0.0240146
0.023937
0.0262443
0.0261052
0.02597
0.0258565
0.025817
0.0280194
0.0278316
0.0276754
0.0275717
0.0275496
0.0296527
0.029415
0.029234
0.029133
0.0291192
0.031115
0.030828
0.0306222
0.0305219
0.0305132
0.0323876
0.032054
0.0318253
0.0317257
0.0317205
0.0334603
0.033084
0.0328357
0.0327373
0.0327347
0.0343297
0.033916
0.033652
0.0335556
0.0335547
0.034999
0.0345543
0.034279
0.0341849
0.0341851
0.0354774
0.0350081
0.0347266
0.0346347
0.0346352
0.0357793
0.0352909
0.0350097
0.034919
0.0349187
0.0359177
0.0354236
0.0351476
0.0350545
0.035052
0.0359176
0.0354235
0.0351476
0.0350544
0.035052
0.0357791
0.0352907
0.0350094
0.0349188
0.0349185
0.0354771
0.0350077
0.0347262
0.0346343
0.0346348
0.0349984
0.0345538
0.0342785
0.0341843
0.0341845
0.034329
0.0339153
0.0336513
0.0335548
0.033554
0.0334594
0.033083
0.0328348
0.0327364
0.0327338
0.0323865
0.0320529
0.0318242
0.0317246
0.0317194
0.0311136
0.0308267
0.0306209
0.0305206
0.0305119
0.0296512
0.0294135
0.0292325
0.0291315
0.0291177
0.0280176
0.0278299
0.0276737
0.02757
0.0275478
0.0262423
0.0261033
0.0259681
0.0258545
0.0258151
0.0243739
0.0242791
0.0241538
0.0240124
0.0239348
0.0224924
0.0224325
0.0223009
0.0221017
0.0219478
0.0206996
0.0206626
0.0205343
0.0202672
0.0199061
0.0191829
0.0191609
0.019132
0.0189685
0.0179347
0.0117272
0.0123257
0.0138042
0.0148964
0.0156871
0.0163136
0.0168022
0.0171642
0.0174275
0.0176019
0.0176529
0.0176533
0.0175755
0.0174166
0.0171761
0.0168507
0.0164387
0.0159435
0.0153685
0.0147077
0.0139394
0.0132569
0.0125277
0.0117746
0.0110245
0.0102918
0.00958662
0.00892373
0.00831224
0.0076975
0.0156542
0.0164542
0.0172575
0.0176591
0.0178867
0.0180251
0.0180766
0.0180502
0.0179757
0.0178462
0.017628
0.0174308
0.0172144
0.0169825
0.0167343
0.0164612
0.0161513
0.015794
0.0153791
0.0149072
0.0144207
0.0137633
0.0131168
0.0124369
0.0117282
0.0110035
0.010271
0.00954532
0.0088655
0.00821084
0.0181417
0.0183251
0.0186401
0.0187928
0.0188662
0.0188708
0.0187948
0.0186487
0.0184558
0.0181735
0.0178183
0.0174749
0.0171032
0.0167149
0.0163164
0.0159078
0.0154863
0.015047
0.0145846
0.0140938
0.0135709
0.0130324
0.0124705
0.0118869
0.0112858
0.0106734
0.010051
0.00942943
0.00889354
0.00851473
0.0195852
0.0193586
0.0194866
0.0195679
0.0195745
0.0195037
0.0193507
0.0191318
0.0188574
0.0184535
0.018004
0.0175374
0.017029
0.0164959
0.0159499
0.0153991
0.0148495
0.0143042
0.0137645
0.0132286
0.0126934
0.012173
0.0116569
0.0111424
0.0106293
0.0101178
0.00960112
0.00908195
0.00868746
0.00863741
0.0206743
0.0202995
0.020345
0.0203554
0.0202784
0.0201203
0.0198817
0.0195776
0.019205
0.0186887
0.018144
0.0175584
0.0169261
0.0162672
0.0155971
0.0149292
0.0142751
0.0136433
0.0130392
0.0124648
0.0119193
0.0114042
0.0109159
0.0104494
0.0100005
0.0095653
0.00913014
0.00868866
0.00840075
0.00865237
0.0216189
0.0212059
0.0211866
0.0211165
0.0209535
0.0207089
0.0203846
0.019992
0.0195111
0.0188925
0.0182477
0.0175479
0.0168003
0.0160269
0.0152463
0.0144758
0.0137309
0.0130237
0.0123622
0.0117506
0.0111888
0.0106749
0.0102051
0.00977289
0.00937216
0.00899623
0.00862624
0.00824833
0.00804912
0.00857346
0.0224536
0.0220483
0.0219709
0.021824
0.021582
0.0212564
0.0208516
0.0203736
0.0197793
0.0190693
0.0183246
0.0175162
0.0166601
0.0157799
0.0148968
0.0140315
0.0132025
0.0124246
0.0117078
0.0110574
0.0104742
0.00995537
0.00949564
0.00908743
0.00872308
0.00839395
0.00807689
0.00775275
0.00763202
0.00840012
0.0231993
0.022832
0.0227044
0.0224856
0.0221693
0.0217664
0.0212855
0.0207225
0.0200151
0.0192232
0.0183789
0.0174667
0.0165078
0.0155268
0.0145476
0.0135935
0.0126854
0.0118401
0.0110693
0.0103792
0.00977101
0.00924165
0.00878479
0.00839187
0.00805411
0.00776124
0.00748632
0.00720689
0.00715574
0.00813521
0.0238781
0.0235705
0.023399
0.0231114
0.0227237
0.0222471
0.0216892
0.021036
0.0202287
0.0193556
0.0184129
0.0174009
0.0163438
0.0152672
0.0141971
0.0131589
0.0121756
0.0112656
0.0104419
0.00971153
0.00907578
0.00853143
0.0080715
0.00768667
0.00736727
0.00710164
0.00685944
0.00661658
0.00662706
0.00778426
0.0245072
0.024274
0.0240633
0.0237084
0.023251
0.0227031
0.0220685
0.0213185
0.0204245
0.0194667
0.0184283
0.0173203
0.0161687
0.0150003
0.0138431
0.0127245
0.0116689
0.0106962
0.00982023
0.00904869
0.00838315
0.00782015
0.00735225
0.00696952
0.0066616
0.00641557
0.00619807
0.00598484
0.00605028
0.00735297
0.0250991
0.0249503
0.024704
0.0242823
0.0237552
0.0231376
0.0224271
0.0215771
0.0206055
0.0195601
0.0184278
0.0172264
0.0159829
0.0147255
0.0134839
0.0122871
0.011161
0.0101265
0.00919844
0.00838476
0.0076873
0.00710244
0.00662238
0.00623667
0.00593442
0.00570153
0.0055019
0.00531244
0.00542721
0.00684619
0.0256643
0.0256067
0.0253277
0.0248387
0.024242
0.0235568
0.0227667
0.0218195
0.0207734
0.0196386
0.0184136
0.0171204
0.0157865
0.0144417
0.0131172
0.0118436
0.0106478
0.00955184
0.00857105
0.0077139
0.00698233
0.0063726
0.00587661
0.0054835
0.0051819
0.00495659
0.00476897
0.00459827
0.0047576
0.00626738
0.0262125
0.0262504
0.0259413
0.0253855
0.0247206
0.0239642
0.0230867
0.0220543
0.0209296
0.0197044
0.0183875
0.017003
0.0155794
0.0141478
0.012741
0.0113908
0.0101252
0.00896712
0.00793248
0.00703011
0.00626205
0.00562448
0.00510901
0.00470447
0.00439906
0.0041764
0.00399566
0.00383941
0.00403913
0.00561831
0.0267535
0.0268878
0.0265515
0.0259288
0.025195
0.0243661
0.023395
0.0222857
0.0210769
0.0197603
0.0183512
0.0168751
0.0153613
0.0138425
0.0123529
0.0109252
0.00958883
0.00836722
0.00727691
0.00632706
0.00551982
0.00485129
0.00431285
0.00389303
0.00357967
0.00335517
0.00317671
0.00303106
0.00326752
0.00489868
0.0272942
0.0275287
0.0271667
0.0264765
0.0256733
0.0247665
0.0237011
0.0225162
0.0212186
0.0198089
0.0183063
0.016737
0.0151316
0.0135241
0.01195
0.0104432
0.00903395
0.00774655
0.00659804
0.00559788
0.00474834
0.00404545
0.0034804
0.00304148
0.00271613
0.00248554
0.00230505
0.00216647
0.00243637
0.00410587
0.0278416
0.0281845
0.0277996
0.0270414
0.0261622
0.0251661
0.0240155
0.0227487
0.0213583
0.0198529
0.0182542
0.016589
0.0148893
0.0131905
0.0115291
0.00994032
0.00845527
0.00709892
0.00588888
0.00483491
0.0039394
0.00319836
0.00260277
0.00214074
0.00179934
0.00155843
0.00137172
0.00123679
0.00153708
0.00323462
0.0284063
0.0288681
0.0284616
0.027632
0.0266698
0.0255751
0.0243445
0.0229874
0.0214994
0.0198948
0.018196
0.016431
0.0146331
0.012839
0.0110864
0.00941162
0.00784668
0.00641725
0.00514146
0.0040294
0.00308361
0.00230005
0.00166958
0.00118011
0.000818325
0.000562717
0.000365523
0.000230749
0.000558541
0.00227668
0.0290069
0.0295917
0.0291657
0.0282546
0.0271995
0.0260095
0.0246933
0.0232375
0.0216464
0.019937
0.0181326
0.0162625
0.0143609
0.0124661
0.0106171
0.00885103
0.00720094
0.0056932
0.00434645
0.00317113
0.00216994
0.00133881
0.000668502
0.000146755
-0.000240147
-0.000515164
-0.000727394
-0.000865744
-0.000513329
0.00122031
0.0296658
0.0303652
0.0299216
0.0289243
0.0277627
0.0264804
0.0250663
0.0235042
0.0218031
0.0199819
0.0180648
0.0160822
0.0140699
0.0120675
0.0101151
0.00825107
0.00650922
0.00491669
0.00349264
0.00224786
0.00118519
0.000300605
-0.000415271
-0.000974822
-0.00139219
-0.00169188
-0.00192417
-0.00207028
-0.00169628
4.95441e-05
0.0304007
0.031209
0.0307483
0.0296542
0.0283772
0.026996
0.0254727
0.0237947
0.0219745
0.0200319
0.0179925
0.0158881
0.0137561
0.0116372
0.00957273
0.00760229
0.00576052
0.00407527
0.00256623
0.00124454
0.000113209
-0.000831794
-0.00159992
-0.00220369
-0.00265772
-0.00298809
-0.0032462
-0.00340494
-0.00301274
-0.00125681
0.0312379
0.032156
0.0316671
0.0304564
0.029065
0.0275697
0.0259235
0.0241174
0.0221656
0.0200892
0.0179153
0.0156771
0.0134137
0.0111669
0.00897968
0.00689241
0.0049407
0.0031531
0.00154981
0.000142299
-0.00106627
-0.00207992
-0.0029082
-0.00356375
-0.00406168
-0.0044298
-0.00472047
-0.00489766
-0.00449134
-0.00272678
0.0322183
0.0332282
0.0326984
0.0313657
0.0298474
0.0282179
0.026432
0.0244814
0.0223816
0.0201553
0.017831
0.0154439
0.0130342
0.0106456
0.00832207
0.00610511
0.00403121
0.00212956
0.000420848
-0.00108318
-0.00237923
-0.00347135
-0.00436918
-0.00508551
-0.00563602
-0.0060503
-0.0063816
-0.00658442
-0.00616918
-0.00439756
0.0333881
0.0344701
0.0338826
0.0324193
0.0307485
0.0289612
0.0270137
0.0248972
0.022628
0.0202307
0.0177357
0.01518
0.0126055
0.0100573
0.00758063
0.00521813
0.00300701
0.000977081
-0.00085061
-0.00246408
-0.00385995
-0.00504234
-0.00602103
-0.00680898
-0.00742252
-0.00789311
-0.00827487
-0.00851227
-0.00809511
-0.00631919
0.0348152
0.0359423
0.0352799
0.0336577
0.0318018
0.0298267
0.0276884
0.025377
0.0229099
0.0203139
0.0176218
0.0148722
0.012109
0.00937878
0.006728
0.00420023
0.00183339
-0.000342312
-0.00230553
-0.00404418
-0.0055549
-0.00684193
-0.00791524
-0.00878802
-0.00947733
-0.0100167
-0.0104609
-0.0107443
-0.0103351
-0.00856031
0.0366117
0.0377381
0.0369614
0.0351356
0.0330531
0.0308497
0.0284807
0.0259348
0.0232315
0.0204001
0.0174757
0.0144993
0.0115165
0.00857553
0.005724
0.00300621
0.000460521
-0.00188263
-0.00400187
-0.00588514
-0.00752925
-0.00893866
-0.0101236
-0.0110975
-0.0118784
-0.0125018
-0.0130235
-0.0133676
-0.0129807
-0.011218
0.0389055
0.0399807
0.0390268
0.0369366
0.0345689
0.0320795
0.029423
0.0265878
0.0235953
0.020478
0.0172739
0.0140265
0.0107834
0.00759429
0.00450764
0.00156819
-0.00118569
-0.00372375
-0.00602488
-0.00807734
-0.00987824
-0.0114323
-0.0127502
-0.0138456
-0.0147376
-0.0154638
-0.0160812
-0.0165046
-0.0161617
-0.0144323
0.0419499
0.0428635
0.041632
0.0391876
0.0364481
0.0335874
0.0305603
0.0273555
0.0239978
0.0205234
0.0169737
0.013395
0.00983682
0.00634993
0.00298315
-0.000219185
-0.00321945
-0.00598829
-0.00850544
-0.0107598
-0.012749
-0.014478
-0.0159577
-0.0172023
-0.0182314
-0.0190847
-0.0198199
-0.0203461
-0.0200807
-0.0184253
0.0461269
0.0466679
0.0449838
0.0420485
0.0388117
0.0354565
0.031939
0.0282507
0.0244205
0.0204896
0.0165036
0.0125117
0.0085653
0.00471559
0.00101058
-0.00250704
-0.00580176
-0.0088464
-0.0116225
-0.0141202
-0.0163383
-0.0182825
-0.0199633
-0.0213951
-0.0225982
-0.023613
-0.0244967
-0.0251592
-0.02503
-0.023534
0.0523049
0.0521
0.0496731
0.0460397
0.0421
0.0380262
0.033787
0.0293875
0.0248685
0.0202806
0.0156765
0.01111
0.00663382
0.00229796
-0.00185268
-0.00577971
-0.00945223
-0.0128472
-0.0159488
-0.0187481
-0.0212484
-0.0234635
-0.0253929
-0.0270509
-0.0284579
-0.0296519
-0.0306858
-0.0314851
-0.0315551
-0.0303847
0.0630846
0.0611976
0.057221
0.0523614
0.0472623
0.0420195
0.0366298
0.0311282
0.0255726
0.020023
0.0145365
0.009166
0.00395888
-0.00104377
-0.00580786
-0.0103063
-0.0145184
-0.0184299
-0.0220325
-0.0253235
-0.0282977
-0.0309485
-0.033297
-0.0353515
-0.0371234
-0.0386382
-0.0399408
-0.0410201
-0.0415809
-0.0410658
0.0154094
0.016347
0.0180989
0.019483
0.0206382
0.0217116
0.0227373
0.0237241
0.024682
0.0256203
0.0265472
0.0274704
0.028398
0.0293385
0.0303
0.0312929
0.0323306
0.0334293
0.0346078
0.0358872
0.0372955
0.0388721
0.0406645
0.0427386
0.0451835
0.0481334
0.0517734
0.0563155
0.0619856
0.0693027
0.0197407
0.0207162
0.0218415
0.0227766
0.0236088
0.0244004
0.025163
0.0259009
0.0266214
0.0273327
0.0280426
0.0287594
0.0294913
0.0302472
0.0310368
0.0318718
0.0327661
0.0337368
0.0348038
0.0359919
0.0373332
0.0388711
0.0406618
0.0427834
0.0453454
0.0485095
0.0525098
0.057667
0.0644663
0.0734931
0.0220495
0.0229178
0.0237594
0.024509
0.0252353
0.0259548
0.0266645
0.0273652
0.0280619
0.0287603
0.0294668
0.0301878
0.0309307
0.0317037
0.0325164
0.0333802
0.0343092
0.0353207
0.0364359
0.0376816
0.0390933
0.0407176
0.0426173
0.0448798
0.0476283
0.0510417
0.0553853
0.0610364
0.0686435
0.0788951
0.024062
0.0248213
0.0255475
0.0262175
0.02688
0.0275449
0.0282113
0.0288819
0.0295617
0.0302563
0.0309712
0.0317127
0.0324879
0.0333048
0.0341731
0.0351045
0.0361133
0.0372173
0.0384387
0.0398061
0.0413569
0.0431408
0.0452248
0.0477019
0.0507031
0.0544172
0.0591239
0.0652174
0.0734369
0.0845172
0.02594
0.0266064
0.0272431
0.0278421
0.0284447
0.029061
0.0296915
0.030339
0.0310078
0.0317026
0.0324286
0.0331917
0.0339987
0.034858
0.0357793
0.0367747
0.0378592
0.0390513
0.0403746
0.0418592
0.0435447
0.0454834
0.0477461
0.0504302
0.0536724
0.0576691
0.0627101
0.0692003
0.0779628
0.0897897
0.0276546
0.028239
0.0287997
0.0293393
0.0298948
0.030475
0.0310806
0.0317138
0.0323781
0.0330778
0.0338177
0.0346034
0.0354419
0.0363413
0.0373116
0.0383653
0.0395177
0.0407882
0.0422014
0.0437888
0.0455918
0.0476651
0.0500823
0.0529448
0.0563941
0.0606331
0.0659612
0.0727965
0.0820433
0.0945763
0.0292031
0.0297143
0.0302108
0.0307019
0.0312206
0.0317739
0.0323621
0.0329869
0.0336515
0.0343596
0.0351157
0.0359254
0.0367952
0.0377334
0.0387501
0.0398579
0.0410727
0.0424144
0.0439084
0.0455874
0.0474941
0.0496852
0.0522367
0.0552528
0.0588792
0.0633243
0.0688964
0.0760271
0.0856869
0.0988466
0.0305808
0.0310262
0.0314677
0.0319193
0.032409
0.0329422
0.0335184
0.0341392
0.0348071
0.0355256
0.0362988
0.037132
0.0380317
0.039006
0.0400654
0.0412225
0.0424935
0.0438989
0.0454646
0.0472244
0.0492222
0.0515158
0.0541833
0.0573312
0.0611086
0.0657285
0.0715066
0.0788869
0.0888852
0.102575
0.0317793
0.0321657
0.0325606
0.0329802
0.0334476
0.0339658
0.0345342
0.0351538
0.0358268
0.0365563
0.037346
0.038201
0.0391279
0.0401347
0.0412318
0.0424321
0.0437522
0.0452127
0.0468404
0.0486695
0.0507448
0.0531255
0.055891
0.0591499
0.0630536
0.0678188
0.073768
0.0813552
0.0916211
0.105749
0.0327917
0.0331262
0.0334824
0.0338769
0.0343272
0.0348346
0.0353981
0.0360183
0.036697
0.0374369
0.0382417
0.0391161
0.0400666
0.0411013
0.0422306
0.0434676
0.044829
0.0463357
0.048015
0.0499017
0.0520412
0.0544936
0.0573395
0.0606889
0.0646954
0.0695785
0.075666
0.0834205
0.0938898
0.108371
0.0336149
0.0339054
0.0342306
0.034606
0.0350436
0.0355434
0.036104
0.0367257
0.0374099
0.0381592
0.0389768
0.0398675
0.0408376
0.0418953
0.043051
0.0443178
0.0457125
0.0472566
0.0489773
0.05091
0.0531007
0.0556101
0.0585197
0.0619406
0.066028
0.0710035
0.0771993
0.0850849
0.0957015
0.110465
0.0342511
0.0345062
0.0348078
0.0351692
0.0355978
0.0360923
0.0366512
0.0372747
0.0379638
0.0387206
0.0395486
0.0404522
0.0414378
0.0425134
0.0436894
0.0449793
0.0463997
0.0479724
0.0497249
0.0516928
0.0539224
0.0564751
0.0594329
0.0629078
0.0670561
0.072101
0.0783779
0.0863621
0.0970782
0.112061
0.0347075
0.0349363
0.0352212
0.035573
0.0359954
0.0364865
0.0370447
0.0376697
0.0383625
0.0391251
0.0399607
0.0408738
0.0418706
0.0429591
0.0441499
0.0454563
0.0468952
0.0484884
0.0502635
0.0522564
0.0545138
0.0570972
0.0600891
0.0636021
0.0677934
0.0728871
0.079221
0.0872748
0.0980506
0.113201
0.0349958
0.0352074
0.0354819
0.0358278
0.0362466
0.0367357
0.0372935
0.0379197
0.0386151
0.0393815
0.040222
0.0411412
0.0421452
0.0432421
0.0444423
0.0457592
0.0472099
0.0488161
0.0506056
0.0526144
0.0548893
0.0574921
0.0605056
0.0640427
0.068261
0.0733853
0.0797549
0.0878523
0.098656
0.113928
0.0351312
0.0353345
0.035604
0.0359472
0.0363644
0.0368527
0.0374104
0.0380372
0.0387339
0.0395022
0.0403451
0.0412673
0.0422748
0.0433756
0.0445804
0.0459024
0.0473587
0.0489711
0.0507675
0.0527839
0.0550672
0.0576793
0.0607031
0.0642516
0.0684828
0.0736216
0.0800083
0.0881264
0.0989368
0.114279
0.0351312
0.0353345
0.0356039
0.0359471
0.0363643
0.0368526
0.0374104
0.0380372
0.0387338
0.0395021
0.0403451
0.0412672
0.0422747
0.0433756
0.0445803
0.0459023
0.0473586
0.0489711
0.0507675
0.0527839
0.0550672
0.0576793
0.060703
0.0642516
0.0684828
0.0736216
0.0800083
0.0881264
0.0989368
0.114279
0.0349956
0.0352072
0.0354817
0.0358276
0.0362464
0.0367355
0.0372934
0.0379196
0.0386149
0.0393813
0.0402219
0.0411411
0.0421451
0.043242
0.0444422
0.0457591
0.0472098
0.048816
0.0506055
0.0526143
0.0548892
0.057492
0.0605055
0.0640426
0.068261
0.0733852
0.0797549
0.0878523
0.098656
0.113928
0.0347071
0.0349359
0.0352208
0.0355726
0.0359951
0.0364862
0.0370444
0.0376694
0.0383622
0.0391249
0.0399604
0.0408735
0.0418703
0.0429589
0.0441497
0.0454561
0.046895
0.0484882
0.0502633
0.0522563
0.0545136
0.0570971
0.060089
0.063602
0.0677934
0.0728871
0.079221
0.0872748
0.0980506
0.113201
0.0342505
0.0345057
0.0348073
0.0351687
0.0355973
0.0360918
0.0366508
0.0372743
0.0379634
0.0387203
0.0395482
0.0404519
0.0414374
0.0425131
0.0436891
0.044979
0.0463995
0.0479722
0.0497247
0.0516925
0.0539222
0.0564749
0.0594327
0.0629076
0.067056
0.0721009
0.0783779
0.0863621
0.0970782
0.112061
0.0336141
0.0339047
0.03423
0.0346054
0.035043
0.0355428
0.0361034
0.0367251
0.0374094
0.0381587
0.0389763
0.039867
0.0408372
0.0418949
0.0430506
0.0443174
0.0457121
0.0472562
0.048977
0.0509097
0.0531005
0.0556099
0.0585195
0.0619404
0.0660278
0.0710034
0.0771992
0.0850849
0.0957015
0.110465
0.0327908
0.0331253
0.0334815
0.0338761
0.0343264
0.0348339
0.0353974
0.0360176
0.0366964
0.0374363
0.0382411
0.0391156
0.0400661
0.0411008
0.0422302
0.0434672
0.0448285
0.0463353
0.0480146
0.0499013
0.0520409
0.0544933
0.0573392
0.0606887
0.0646952
0.0695783
0.0756659
0.0834205
0.0938898
0.108372
0.0317783
0.0321647
0.0325596
0.0329793
0.0334466
0.0339649
0.0345334
0.035153
0.0358261
0.0365555
0.0373453
0.0382003
0.0391272
0.0401341
0.0412312
0.0424316
0.0437517
0.0452122
0.0468399
0.0486691
0.0507444
0.0531252
0.0558907
0.0591496
0.0630533
0.0678186
0.0737679
0.0813552
0.0916211
0.105749
0.0305795
0.031025
0.0314666
0.0319181
0.0324079
0.0329412
0.0335175
0.0341383
0.0348062
0.0355247
0.036298
0.0371312
0.0380309
0.0390053
0.0400647
0.0412218
0.0424929
0.0438983
0.0454641
0.0472239
0.0492217
0.0515154
0.0541829
0.0573309
0.0611084
0.0657282
0.0715065
0.0788869
0.0888852
0.102575
0.0292016
0.0297129
0.0302094
0.0307006
0.0312193
0.0317727
0.0323609
0.0329858
0.0336504
0.0343586
0.0351148
0.0359244
0.0367943
0.0377325
0.0387493
0.0398572
0.041072
0.0424137
0.0439078
0.0455868
0.0474936
0.0496848
0.0522363
0.0552524
0.0588788
0.063324
0.0688962
0.076027
0.0856869
0.0988467
0.0276529
0.0282374
0.0287982
0.0293378
0.0298933
0.0304736
0.0310793
0.0317125
0.0323769
0.0330766
0.0338165
0.0346024
0.0354409
0.0363403
0.0373107
0.0383644
0.0395169
0.0407875
0.0422007
0.0437881
0.0455912
0.0476645
0.0500819
0.0529443
0.0563937
0.0606328
0.0659609
0.0727964
0.0820433
0.0945764
0.0259381
0.0266046
0.0272413
0.0278404
0.0284431
0.0290594
0.02969
0.0303376
0.0310065
0.0317013
0.0324274
0.0331905
0.0339976
0.0348569
0.0357783
0.0367738
0.0378583
0.0390505
0.0403738
0.0418585
0.043544
0.0454828
0.0477456
0.0504297
0.053672
0.0576687
0.0627098
0.0692001
0.0779627
0.0897898
0.0240599
0.0248192
0.0255455
0.0262156
0.0268782
0.0275432
0.0282096
0.0288803
0.0295602
0.0302548
0.0309698
0.0317114
0.0324866
0.0333036
0.034172
0.0351034
0.0361123
0.0372164
0.0384378
0.0398053
0.0413562
0.0431401
0.0452242
0.0477013
0.0507026
0.0544167
0.0591235
0.0652172
0.0734368
0.0845173
0.0220471
0.0229156
0.0237572
0.0245069
0.0252333
0.0259529
0.0266626
0.0273634
0.0280602
0.0287587
0.0294652
0.0301863
0.0309293
0.0317024
0.0325151
0.033379
0.0343081
0.0353196
0.0364349
0.0376807
0.0390924
0.0407168
0.0426166
0.0448791
0.0476277
0.0510412
0.0553849
0.0610361
0.0686433
0.0788952
0.0197381
0.0207137
0.0218391
0.0227743
0.0236066
0.0243983
0.025161
0.025899
0.0266195
0.0273309
0.0280409
0.0287578
0.0294897
0.0302457
0.0310354
0.0318705
0.0327649
0.0337357
0.0348028
0.0359908
0.0373323
0.0388702
0.040661
0.0427827
0.0453447
0.0485089
0.0525093
0.0576666
0.064466
0.0734931
0.0154066
0.0163442
0.0180962
0.0194805
0.0206357
0.0217093
0.0227351
0.023722
0.0246799
0.0256184
0.0265453
0.0274686
0.0283964
0.0293369
0.0302985
0.0312915
0.0323292
0.033428
0.0346066
0.0358861
0.0372945
0.0388711
0.0406636
0.0427378
0.0451828
0.0481328
0.0517728
0.0563151
0.0619854
0.0693026
0.0630845
0.0611975
0.0572209
0.0523613
0.0472621
0.0420193
0.0366295
0.0311279
0.0255723
0.0200227
0.0145361
0.00916557
0.00395842
-0.00104426
-0.00580838
-0.0103068
-0.014519
-0.0184305
-0.0220331
-0.0253241
-0.0282983
-0.0309492
-0.0332976
-0.0353522
-0.0371241
-0.0386389
-0.0399415
-0.0410208
-0.0415815
-0.0410664
0.0523046
0.0520998
0.049673
0.0460395
0.0420998
0.038026
0.0337867
0.0293872
0.0248681
0.0202801
0.015676
0.0111094
0.00663325
0.00229736
-0.00185331
-0.00578036
-0.00945291
-0.0128479
-0.0159495
-0.0187489
-0.0212491
-0.0234642
-0.0253937
-0.0270516
-0.0284586
-0.0296527
-0.0306866
-0.0314859
-0.0315559
-0.0303853
0.0461264
0.0466675
0.0449835
0.0420482
0.0388114
0.0354561
0.0319386
0.0282502
0.02442
0.0204891
0.016503
0.012511
0.00856463
0.00471489
0.00100985
-0.00250779
-0.00580254
-0.0088472
-0.0116233
-0.0141211
-0.0163392
-0.0182834
-0.0199641
-0.0213959
-0.022599
-0.0236139
-0.0244976
-0.02516
-0.0250308
-0.0235346
0.0419494
0.042863
0.0416316
0.0391872
0.0364477
0.0335869
0.0305598
0.027355
0.0239972
0.0205228
0.016973
0.0133943
0.00983606
0.00634914
0.00298233
-0.000220037
-0.00322033
-0.00598918
-0.00850635
-0.0107608
-0.01275
-0.014479
-0.0159587
-0.0172032
-0.0182323
-0.0190857
-0.0198209
-0.020347
-0.0200816
-0.018426
0.0389048
0.0399801
0.0390263
0.0369361
0.0345683
0.0320789
0.0294224
0.0265871
0.0235946
0.0204773
0.0172732
0.0140257
0.0107826
0.00759341
0.00450673
0.00156725
-0.00118666
-0.00372474
-0.00602589
-0.00807836
-0.00987927
-0.0114334
-0.0127512
-0.0138467
-0.0147386
-0.0154649
-0.0160822
-0.0165056
-0.0161626
-0.014433
0.036611
0.0377374
0.0369608
0.035135
0.0330525
0.030849
0.02848
0.0259341
0.0232307
0.0203993
0.0174749
0.0144984
0.0115156
0.00857457
0.005723
0.00300518
0.000459465
-0.00188371
-0.00400296
-0.00588625
-0.00753037
-0.00893978
-0.0101247
-0.0110986
-0.0118795
-0.0125029
-0.0130246
-0.0133687
-0.0129817
-0.0112188
0.0348144
0.0359416
0.0352792
0.0336569
0.0318011
0.0298259
0.0276877
0.0253762
0.022909
0.020313
0.0176209
0.0148712
0.012108
0.00937773
0.00672692
0.00419912
0.00183225
-0.000343472
-0.00230671
-0.00404537
-0.00555609
-0.00684313
-0.00791644
-0.00878921
-0.00947851
-0.0100178
-0.0104621
-0.0107455
-0.0103361
-0.00856109
0.0333873
0.0344692
0.0338818
0.0324184
0.0307477
0.0289604
0.0270129
0.0248963
0.0226271
0.0202297
0.0177347
0.0151789
0.0126044
0.0100562
0.00757947
0.00521693
0.0030058
0.000975843
-0.000851863
-0.00246534
-0.00386122
-0.00504361
-0.0060223
-0.00681024
-0.00742376
-0.00789433
-0.00827607
-0.00851345
-0.00809619
-0.00632001
0.0322174
0.0332273
0.0326975
0.0313648
0.0298465
0.028217
0.026431
0.0244804
0.0223806
0.0201542
0.0178299
0.0154427
0.0130331
0.0106444
0.00832083
0.00610384
0.00402991
0.00212825
0.000419522
-0.00108452
-0.00238057
-0.00347268
-0.00437051
-0.00508682
-0.00563732
-0.00605157
-0.00638285
-0.00658564
-0.0061703
-0.00439843
0.0312369
0.032155
0.0316661
0.0304554
0.029064
0.0275687
0.0259225
0.0241164
0.0221645
0.0200881
0.0179141
0.0156759
0.0134124
0.0111657
0.00897837
0.00689107
0.00493933
0.00315172
0.00154842
0.0001409
-0.00106767
-0.00208131
-0.00290958
-0.00356511
-0.00406303
-0.00443112
-0.00472176
-0.00489892
-0.00449251
-0.00272769
0.0303996
0.0312079
0.0307471
0.0296531
0.0283761
0.0269949
0.0254715
0.0237935
0.0219733
0.0200307
0.0179913
0.0158869
0.0137548
0.0116358
0.00957135
0.00760088
0.00575909
0.00407382
0.00256478
0.00124308
0.000111754
-0.000833239
-0.00160135
-0.0022051
-0.0026591
-0.00298944
-0.00324752
-0.00340622
-0.00301393
-0.00125776
0.0296646
0.030364
0.0299204
0.0289231
0.0277615
0.0264791
0.0250651
0.0235029
0.0218018
0.0199806
0.0180635
0.0160808
0.0140686
0.0120661
0.0101137
0.0082496
0.00650773
0.00491519
0.00349113
0.00224634
0.00118369
0.000299113
-0.000416743
-0.000976268
-0.00139361
-0.00169326
-0.00192552
-0.00207158
-0.00169749
4.85604e-05
0.0290057
0.0295904
0.0291644
0.0282533
0.0271982
0.0260082
0.024692
0.0232362
0.021645
0.0199356
0.0181312
0.016261
0.0143595
0.0124646
0.0106155
0.0088495
0.00719938
0.00569163
0.00434488
0.00316957
0.00216839
0.00133728
0.000666994
0.000145277
-0.000241589
-0.000516565
-0.000728752
-0.000867055
-0.000514549
0.00121929
0.028405
0.0288667
0.0284602
0.0276306
0.0266685
0.0255737
0.0243431
0.022986
0.021498
0.0198933
0.0181945
0.0164295
0.0146316
0.0128374
0.0110848
0.00941003
0.00784507
0.00641564
0.00513984
0.00402779
0.00308202
0.00229848
0.00166804
0.0011786
0.000816864
0.000561302
0.000364157
0.000229436
0.000557318
0.00227565
0.0278401
0.0281831
0.0277981
0.0270399
0.0261608
0.0251646
0.024014
0.0227472
0.0213567
0.0198514
0.0182526
0.0165875
0.0148878
0.0131889
0.0115275
0.00993867
0.00845361
0.00709726
0.00588722
0.00483326
0.00393778
0.00319676
0.00260121
0.00213922
0.00179787
0.00155701
0.00137036
0.00123548
0.00153586
0.00323357
0.0272926
0.0275271
0.0271651
0.0264749
0.0256717
0.0247649
0.0236995
0.0225146
0.021217
0.0198073
0.0183047
0.0167354
0.0151299
0.0135224
0.0119483
0.0104415
0.00903224
0.00774484
0.00659634
0.0055962
0.00474668
0.00404383
0.00347882
0.00303994
0.00271466
0.00248412
0.00230369
0.00216518
0.00243516
0.0041048
0.0267519
0.0268861
0.0265498
0.0259271
0.0251933
0.0243645
0.0233933
0.022284
0.0210752
0.0197586
0.0183495
0.0168734
0.0153596
0.0138408
0.0123511
0.0109235
0.00958708
0.00836547
0.00727517
0.00632535
0.00551814
0.00484965
0.00431125
0.00389149
0.00357819
0.00335375
0.00317536
0.00302978
0.00326633
0.00489761
0.0262108
0.0262487
0.0259395
0.0253838
0.0247188
0.0239625
0.0230849
0.0220525
0.0209278
0.0197027
0.0183857
0.0170012
0.0155776
0.014146
0.0127392
0.0113889
0.0101234
0.00896533
0.00793071
0.00702837
0.00626035
0.00562283
0.00510741
0.00470293
0.00439759
0.004175
0.00399434
0.00383815
0.00403796
0.00561723
0.0256625
0.0256049
0.0253258
0.0248369
0.0242402
0.023555
0.0227649
0.0218176
0.0207715
0.0196368
0.0184117
0.0171185
0.0157846
0.0144398
0.0131153
0.0118417
0.010646
0.00955001
0.00856925
0.00771214
0.00698061
0.00637094
0.005875
0.00548196
0.00518044
0.0049552
0.00476766
0.00459704
0.00475645
0.0062663
0.0250972
0.0249484
0.0247021
0.0242803
0.0237533
0.0231357
0.0224251
0.0215752
0.0206036
0.0195582
0.0184258
0.0172245
0.0159809
0.0147235
0.0134819
0.0122851
0.0111591
0.0101247
0.00919661
0.00838298
0.00768557
0.00710078
0.00662078
0.00623515
0.00593297
0.00570017
0.00550062
0.00531124
0.00542609
0.00684511
0.0245051
0.024272
0.0240612
0.0237063
0.0232489
0.0227011
0.0220665
0.0213165
0.0204225
0.0194647
0.0184263
0.0173183
0.0161667
0.0149983
0.0138411
0.0127225
0.0116669
0.0106943
0.00981837
0.00904688
0.00838141
0.00781848
0.00735066
0.00696801
0.00666017
0.00641423
0.00619681
0.00598367
0.00604918
0.00735191
0.0238759
0.0235684
0.0233969
0.0231092
0.0227215
0.0222449
0.0216871
0.0210339
0.0202265
0.0193534
0.0184108
0.0173988
0.0163417
0.0152651
0.014195
0.0131569
0.0121736
0.0112637
0.0104401
0.00970971
0.00907404
0.00852976
0.00806992
0.00768517
0.00736586
0.00710031
0.0068582
0.00661544
0.00662599
0.00778321
0.023197
0.0228297
0.0227021
0.0224833
0.022167
0.0217641
0.0212833
0.0207203
0.0200128
0.0192209
0.0183767
0.0174645
0.0165056
0.0155247
0.0145455
0.0135914
0.0126833
0.0118381
0.0110673
0.0103774
0.00976926
0.00923999
0.00878322
0.00839039
0.00805272
0.00775994
0.00748511
0.00720577
0.0071547
0.00813419
0.0224512
0.022046
0.0219686
0.0218216
0.0215796
0.021254
0.0208492
0.0203713
0.019777
0.019067
0.0183222
0.0175139
0.0166579
0.0157776
0.0148945
0.0140293
0.0132004
0.0124225
0.0117058
0.0110556
0.0104724
0.00995372
0.00949409
0.00908598
0.00872171
0.00839268
0.0080757
0.00775165
0.00763102
0.00839913
0.0216164
0.0212035
0.0211841
0.021114
0.0209511
0.0207064
0.0203821
0.0199895
0.0195086
0.0188901
0.0182453
0.0175455
0.0167979
0.0160246
0.015244
0.0144736
0.0137288
0.0130216
0.0123603
0.0117487
0.011187
0.0106733
0.0102035
0.00977146
0.00937082
0.00899498
0.00862508
0.00824726
0.00804814
0.00857251
0.0206717
0.020297
0.0203424
0.0203528
0.0202758
0.0201177
0.0198791
0.019575
0.0192024
0.0186861
0.0181415
0.0175558
0.0169236
0.0162648
0.0155947
0.0149269
0.0142729
0.0136412
0.0130372
0.0124629
0.0119176
0.0114026
0.0109144
0.010448
0.00999918
0.00956407
0.00912901
0.00868762
0.00839981
0.00865146
0.0195826
0.0193559
0.0194839
0.0195652
0.0195718
0.019501
0.0193479
0.0191291
0.0188547
0.0184508
0.0180013
0.0175348
0.0170264
0.0164933
0.0159474
0.0153967
0.0148472
0.014302
0.0137625
0.0132267
0.0126917
0.0121715
0.0116554
0.011141
0.010628
0.0101166
0.00960001
0.00908095
0.00868655
0.00863655
0.0181389
0.0183223
0.0186373
0.01879
0.0188633
0.018868
0.018792
0.0186459
0.018453
0.0181706
0.0178154
0.0174721
0.0171004
0.0167122
0.0163138
0.0159053
0.0154839
0.0150448
0.0145826
0.0140919
0.013569
0.0130308
0.012469
0.0118855
0.0112845
0.0106722
0.0100499
0.00942846
0.00889267
0.00851394
0.0156513
0.0164513
0.0172546
0.0176561
0.0178837
0.0180222
0.0180736
0.0180472
0.0179727
0.0178432
0.017625
0.0174278
0.0172115
0.0169797
0.0167316
0.0164586
0.0161488
0.0157917
0.0153769
0.0149053
0.0144185
0.0137618
0.0131153
0.0124355
0.0117269
0.0110023
0.0102699
0.00954437
0.00886466
0.0082101
0.0117243
0.0123227
0.0138012
0.0148934
0.0156841
0.0163106
0.0167992
0.0171611
0.0174244
0.0175988
0.0176498
0.0176502
0.0175725
0.0174137
0.0171732
0.016848
0.016436
0.015941
0.0153662
0.0147059
0.0139387
0.0132556
0.0125262
0.0117732
0.0110231
0.0102905
0.00958549
0.00892271
0.00831134
0.00769674
-0.0427533
-0.0348372
-0.0288557
-0.0239971
-0.0199861
-0.0166467
-0.0138294
-0.011425
-0.0093505
-0.00754257
-0.00595255
-0.00454242
-0.00328209
-0.00214743
-0.00111892