/*--------------------------------*- C++ -*----------------------------------*\
  =========                 |
  \\      /  F ield         | OpenFOAM: The Open Source CFD Toolbox
   \\    /   O peration     | Website:  https://openfoam.org
    \\  /    A nd           | Version:  12
     \\/     M anipulation  |
\*---------------------------------------------------------------------------*/
FoamFile
{
    format      ascii;
    class       surfaceScalarField;
    location    "100";
    object      phi;
}
// * * * * * * * * * * * * * * * * * * * * * * * * * * * * * * * * * * * * * //

dimensions      [0 3 -1 0 0 0 0];

internalField   nonuniform List<scalar> 
13275
(
0.369022
-0.00464578
0.36948
-0.0115423
0.369791
-0.0154874
0.369904
-0.0174552
-0.0181307
0.369841
0.351099
-0.00491906
0.35146
-0.0119038
0.351679
-0.0157066
0.351638
-0.0174135
-0.0177286
0.351236
0.334002
-0.00504182
0.334076
-0.0119781
0.333964
-0.0155946
0.333626
-0.0170753
-0.0171849
0.333082
0.317721
-0.00501174
0.317508
-0.0117649
0.317096
-0.0151828
0.31652
-0.0165
-0.0165048
0.31584
0.302244
-0.00485386
0.301786
-0.0113064
0.301115
-0.0145126
0.30032
-0.0157051
-0.0156615
0.299477
0.287533
-0.00459222
0.286867
-0.0106404
0.285967
-0.0136126
0.284959
-0.0146973
-0.0146353
0.283933
0.273545
-0.00424423
0.2727
-0.00979586
0.271594
-0.0125061
0.270382
-0.0134862
-0.0134218
0.269169
0.260242
-0.00382371
0.259245
-0.0087987
0.257956
-0.0112179
0.25656
-0.0120899
-0.0120311
0.255169
0.247591
-0.00334381
0.246468
-0.00767608
0.245029
-0.00977806
0.243474
-0.0105355
-0.0104861
0.241929
0.235562
-0.00281835
0.234344
-0.00645775
0.232788
-0.00822167
0.23111
-0.00885825
-0.00881901
0.229443
0.224127
-0.00226174
0.222845
-0.00517518
0.22121
-0.00658717
0.21945
-0.00709776
-0.00706837
0.217699
0.213257
-0.00168847
0.211942
-0.00385987
0.210268
-0.0049135
0.208466
-0.00529512
-0.0052745
0.206672
0.202925
-0.00111243
0.201607
-0.00254138
0.199931
-0.00323751
0.198125
-0.0034894
-0.00347629
0.196327
0.193105
-0.00054621
0.19181
-0.00124622
0.190164
-0.00159152
0.188389
-0.00171492
-0.00170838
0.186622
0.18377
1.97419e-07
0.182523
3.87948e-07
0.180931
4.38215e-07
0.179216
4.19736e-07
3.74691e-07
0.177507
0.18377
0.000546605
0.182523
0.00124699
0.180931
0.0015924
0.179216
0.00171576
0.00170912
0.177507
0.193105
0.00111282
0.19181
0.00254216
0.190164
0.00323838
0.188389
0.00349023
0.00347703
0.186622
0.202925
0.00168886
0.201607
0.00386064
0.199931
0.00491437
0.198125
0.00529595
0.00527524
0.196327
0.213257
0.00226213
0.211942
0.00517595
0.210268
0.00658802
0.208466
0.00709858
0.0070691
0.206672
0.224127
0.00281874
0.222845
0.0064585
0.22121
0.00822252
0.21945
0.00885906
0.00881973
0.217699
0.235562
0.00334419
0.234344
0.00767682
0.232788
0.00977889
0.231111
0.0105363
0.0104868
0.229443
0.247591
0.00382408
0.246468
0.00879942
0.245029
0.0112187
0.243474
0.0120906
0.0120318
0.241929
0.260242
0.0042446
0.259245
0.00979657
0.257956
0.0125069
0.25656
0.0134869
0.0134225
0.255169
0.273545
0.00459258
0.2727
0.0106411
0.271594
0.0136134
0.270383
0.014698
0.0146359
0.269169
0.287533
0.0048542
0.286867
0.0113071
0.285967
0.0145133
0.284959
0.0157058
0.015662
0.283933
0.302244
0.00501208
0.301786
0.0117655
0.301115
0.0151835
0.300321
0.0165006
0.0165053
0.299477
0.317721
0.00504213
0.317508
0.0119787
0.317096
0.0155953
0.316521
0.0170758
0.0171854
0.315841
0.334002
0.00491935
0.334076
0.0119044
0.333964
0.0157072
0.333626
0.017414
0.017729
0.333082
0.351099
0.00464604
0.35146
0.0115428
0.35168
0.0154879
0.351638
0.0174557
0.018131
0.351236
0.369022
0.36948
0.369791
0.369904
0.369842
0.197517
-0.0508218
-0.197554
0.197102
-0.0580983
0.19607
-0.064393
0.194402
-0.0699212
0.192154
-0.0746465
0.1894
-0.0785023
0.186212
-0.0813973
0.182668
-0.0832081
0.178859
-0.0837917
0.174898
-0.0831045
0.170873
-0.0809332
0.166941
-0.0771576
0.163249
-0.0718577
0.159941
-0.0651249
0.15715
-0.0571386
0.154983
-0.0481554
0.153511
-0.0384884
0.152768
-0.0284769
0.152746
-0.0184594
0.153409
-0.00875111
0.154646
0.000436081
0.156457
0.00886246
0.15871
0.0164713
0.161312
0.0231398
0.164174
0.0288478
0.167212
0.0336118
0.170352
0.0374745
0.17353
0.0404943
0.176684
0.0427384
0.0442692
0.179722
0.194891
-0.0509433
-0.19477
0.194223
-0.0574297
0.192858
-0.0630282
0.190898
-0.0679608
0.188421
-0.0721693
0.1855
-0.0755821
0.182205
-0.0781023
0.178607
-0.0796096
0.174793
-0.0799777
0.170859
-0.0791705
0.166888
-0.0769628
0.16303
-0.0732996
0.159418
-0.0682455
0.156183
-0.0618901
0.153445
-0.0544006
0.151302
-0.0460117
0.149819
-0.0370056
0.14903
-0.0276878
0.148931
-0.0183603
0.149476
-0.00929676
0.150641
-0.000728984
0.152312
0.00719218
0.154439
0.0143436
0.156927
0.020652
0.159688
0.026087
0.162642
0.0306574
0.16572
0.0343969
0.16886
0.0373542
0.172002
0.039596
0.0412504
0.175021
0.191575
-0.0506834
-0.191835
0.190601
-0.0564551
0.18902
-0.0614474
0.186913
-0.0658536
0.184347
-0.0696033
0.181382
-0.0726177
0.178078
-0.0747985
0.174501
-0.0760321
0.170738
-0.0762151
0.166866
-0.0752982
0.162973
-0.0730697
0.159197
-0.0695238
0.155661
-0.0647097
0.152487
-0.0587161
0.149786
-0.0516997
0.14765
-0.0438751
0.146142
-0.0354977
0.145296
-0.0268417
0.145112
-0.0181766
0.145563
-0.00974742
0.146593
-0.00175958
0.148143
0.00564242
0.150138
0.0123482
0.152499
0.0182919
0.155141
0.0234445
0.157989
0.0278097
0.160972
0.0314136
0.164031
0.0342949
0.167112
0.0365159
0.0382731
0.170089
0.188146
-0.0500787
-0.188751
0.186911
-0.0552204
0.185146
-0.0596818
0.18291
-0.063618
0.180262
-0.0669552
0.177255
-0.0696107
0.173944
-0.0714873
0.170389
-0.0724773
0.166679
-0.0725051
0.16287
-0.0714898
0.15906
-0.0692595
0.155369
-0.0658333
0.151911
-0.0612509
0.148795
-0.0556003
0.146124
-0.0490288
0.143983
-0.041734
0.142433
-0.0339478
0.141508
-0.0259169
0.141214
-0.0178824
0.14153
-0.0100629
0.14241
-0.00264001
0.143802
0.00425009
0.145639
0.0105113
0.147847
0.0160838
0.150351
0.0209408
0.153077
0.0250836
0.155958
0.0285328
0.158935
0.0313183
0.161955
0.033495
0.035326
0.164903
0.184633
-0.0491788
-0.185533
0.18317
-0.0537577
0.181234
-0.0577456
0.178878
-0.0612616
0.176151
-0.064229
0.173104
-0.0665633
0.169787
-0.0681699
0.166258
-0.0689485
0.162598
-0.068845
0.158853
-0.0677448
0.155123
-0.0655302
0.151515
-0.0622247
0.148129
-0.0578654
0.145068
-0.0525387
0.142423
-0.046384
0.140273
-0.0395841
0.138676
-0.0323507
0.137666
-0.0249069
0.137252
-0.0174689
0.137421
-0.0102315
0.138137
-0.00335654
0.139354
0.00303316
0.141013
0.00885219
0.143049
0.0140479
0.145393
0.0185967
0.147978
0.0224993
0.150738
0.0257722
0.153618
0.0284388
0.156567
0.0305455
0.0324133
0.15948
0.181004
-0.0480124
-0.182171
0.179334
-0.0520878
0.177244
-0.0556555
0.17478
-0.0587979
0.171987
-0.0614354
0.168907
-0.0634836
0.165589
-0.0648521
0.162091
-0.0654496
0.158477
-0.0652316
0.154795
-0.0640628
0.151142
-0.0618771
0.14761
-0.058693
0.144293
-0.054548
0.141282
-0.0495273
0.138661
-0.0437631
0.136502
-0.0374254
0.13486
-0.0307085
0.133768
-0.0238149
0.133238
-0.0169391
0.133262
-0.0102552
0.133812
-0.00390699
0.134849
0.00199633
0.136322
0.00737932
0.138173
0.0121965
0.140342
0.016428
0.142766
0.0200749
0.145387
0.0231519
0.148148
0.0256773
0.151004
0.0276897
0.029554
0.153863
0.177239
-0.0466043
-0.178648
0.175384
-0.0502322
0.173159
-0.0534301
0.170602
-0.0562417
0.167753
-0.0585861
0.16465
-0.0603802
0.161337
-0.0615391
0.15787
-0.0619832
0.154301
-0.061662
0.150681
-0.0604427
0.147099
-0.0582957
0.143639
-0.0552329
0.140385
-0.0512942
0.137421
-0.0465633
0.134824
-0.041166
0.13266
-0.0352609
0.130978
-0.0290272
0.129812
-0.0226491
0.129176
-0.0163024
0.129063
-0.0101427
0.129454
-0.00429775
0.130314
0.00113608
0.131601
0.00609297
0.133263
0.0105342
0.135247
0.0144438
0.137497
0.0178244
0.13996
0.0206895
0.142583
0.0230543
0.145321
0.0249513
0.0267731
0.148102
0.173329
-0.044981
-0.174953
0.171312
-0.0482143
0.16897
-0.0510881
0.166335
-0.0536075
0.163441
-0.0556916
0.160321
-0.0572608
0.157017
-0.0582342
0.153582
-0.0585489
0.150055
-0.0581351
0.146495
-0.0568827
0.142981
-0.0547814
0.139588
-0.05184
0.136394
-0.0481004
0.133476
-0.0436452
0.130904
-0.038594
0.128739
-0.0330954
0.127026
-0.0273146
0.125797
-0.0214202
0.125066
-0.0155712
0.12483
-0.00990676
0.125073
-0.0045404
0.125766
0.000443264
0.126871
0.00498732
0.128346
0.00905939
0.130142
0.0126475
0.132211
0.0157559
0.134503
0.0183978
0.13697
0.0205869
0.13957
0.0223512
0.0240956
0.142248
0.169269
-0.0431704
-0.17108
0.167112
-0.0460574
0.164671
-0.048647
0.161971
-0.0509079
0.159041
-0.0527611
0.155911
-0.0541311
0.152619
-0.0549424
0.149216
-0.0551455
0.145731
-0.0546502
0.142229
-0.0533803
0.138778
-0.0513306
0.135449
-0.0485107
0.132313
-0.0449644
0.12944
-0.0407727
0.126896
-0.0360498
0.124735
-0.0309346
0.123001
-0.0255801
0.121721
-0.0201404
0.120909
-0.0147596
0.120565
-0.00956244
0.120674
-0.0046496
0.121213
-9.51766e-05
0.122148
0.00405203
0.123442
0.00776543
0.125053
0.0110367
0.126937
0.013872
0.12905
0.0162845
0.131349
0.0182874
0.133795
0.019906
0.0215443
0.136346
0.165054
-0.0411997
-0.167025
0.16278
-0.0437835
0.160256
-0.0461231
0.157504
-0.048155
0.154545
-0.049803
0.151411
-0.0509967
0.148137
-0.0516681
0.144762
-0.0517712
0.14132
-0.0512079
0.137873
-0.049933
0.134483
-0.0479404
0.131214
-0.0452427
0.128135
-0.0418851
0.125309
-0.037947
0.122797
-0.0335369
0.120647
-0.0287853
0.1189
-0.0238334
0.117582
-0.0188223
0.116705
-0.0138824
0.116268
-0.00912581
0.11626
-0.00464167
0.11666
-0.000494652
0.117438
0.00327364
0.118562
0.00664178
0.119994
0.00960478
0.121696
0.0121703
0.123628
0.0143522
0.125752
0.0161632
0.12803
0.0176276
0.0191378
0.130437
0.160682
-0.0390948
-0.162787
0.158311
-0.041413
0.15572
-0.0435316
0.152925
-0.0453599
0.149947
-0.0468252
0.146813
-0.0478625
0.143559
-0.0484138
0.140213
-0.0484252
0.136814
-0.047809
0.13342
-0.0465394
0.130089
-0.0446093
0.126881
-0.0420348
0.123859
-0.0388626
0.121082
-0.0351698
0.118605
-0.0310598
0.116474
-0.0266544
0.114725
-0.0220842
0.11338
-0.0174782
0.112452
-0.0129543
0.11194
-0.00861314
0.111832
-0.0045335
0.112109
-0.000771781
0.112746
0.00263679
0.113712
0.00567525
0.114975
0.00834148
0.116501
0.0106446
0.118255
0.0125986
0.120201
0.0142168
0.122306
0.0155228
0.0168898
0.124554
0.156149
-0.0368799
-0.158364
0.153701
-0.0389646
0.151055
-0.0408865
0.148229
-0.042533
0.145239
-0.0438355
0.14211
-0.0447333
0.138876
-0.0451803
0.13556
-0.0451096
0.132206
-0.0444548
0.128866
-0.043199
0.125593
-0.0413368
0.122446
-0.0388874
0.119482
-0.0358982
0.116756
-0.0324443
0.11432
-0.0286235
0.112215
-0.0245495
0.110473
-0.0203426
0.109115
-0.0161204
0.108151
-0.0119897
0.107578
-0.00804028
0.107386
-0.0043419
0.107558
-0.000943524
0.10807
0.00212515
0.108894
0.00485101
0.110001
0.00723426
0.11136
0.00928513
0.112941
0.0110179
0.114712
0.012446
0.116641
0.0135933
0.0148084
0.118723
0.151451
-0.034577
-0.153754
0.148942
-0.036455
0.146256
-0.0382004
0.143406
-0.0396838
0.140411
-0.0408403
0.137294
-0.0416156
0.134082
-0.041969
0.1308
-0.0418269
0.127491
-0.0411464
0.124205
-0.0399127
0.120992
-0.0381238
0.117906
-0.0358017
0.115002
-0.0329943
0.112332
-0.0297741
0.109942
-0.0262334
0.10787
-0.0224778
0.106146
-0.0186179
0.104786
-0.0147606
0.103798
-0.011002
0.10318
-0.00742237
0.102921
-0.00408307
0.103005
-0.00102659
0.103407
0.0017222
0.104105
0.00415337
0.10507
0.00626902
0.106275
0.00808011
0.107692
0.00960097
0.109293
0.0108452
0.111049
0.0118371
0.0128973
0.11296
0.146584
-0.0322065
-0.148954
0.144028
-0.0338991
0.141313
-0.0354853
0.138451
-0.0368216
0.135457
-0.0378469
0.132357
-0.0385151
0.12917
-0.038782
0.125924
-0.0385811
0.122663
-0.0378859
0.119433
-0.0366822
0.116281
-0.0349722
0.11326
-0.0327802
0.11042
-0.0301543
0.107809
-0.0271637
0.105471
-0.0238954
0.10344
-0.020447
0.101742
-0.0169195
0.100391
-0.0134098
0.0993934
-0.0100041
0.0987446
-0.00677362
0.098434
-0.00377238
0.0984444
-0.00103704
0.0987549
0.00141168
0.0993418
0.00356649
0.10018
0.00543088
0.101244
0.00701623
0.102508
0.00833666
0.103947
0.00940589
0.105536
0.0102484
0.0111555
0.107278
0.141539
-0.0297859
-0.143959
0.13895
-0.0313109
0.136218
-0.032753
0.133352
-0.0339558
0.130368
-0.0348624
0.127288
-0.0354355
0.12413
-0.0356235
0.120926
-0.035377
0.117716
-0.0346765
0.114545
-0.0335105
0.111457
-0.0318851
0.108504
-0.0298266
0.105732
-0.0273822
0.103186
-0.0246183
0.100907
-0.0216158
0.0989243
-0.0184645
0.0972612
-0.0152564
0.0959298
-0.0120785
0.0949335
-0.00900777
0.0942671
-0.00610726
0.0939189
-0.00342417
0.0938719
-0.000990002
0.0941055
0.00117803
0.0945972
0.00307481
0.0953233
0.0047048
0.0962601
0.00607945
0.0973843
0.00721246
0.0986727
0.00811744
0.100102
0.00881887
0.00957851
0.101679
0.136306
-0.0273307
-0.138761
0.133699
-0.0287045
0.130961
-0.0300146
0.1281
-0.0310954
0.125133
-0.0318954
0.122079
-0.0323812
0.118955
-0.0324996
0.115797
-0.0322192
0.112643
-0.0315224
0.109534
-0.0304018
0.106516
-0.0288669
0.103635
-0.0269452
0.100936
-0.0246832
0.0984611
-0.0221435
0.0962464
-0.0194011
0.0943198
-0.016538
0.0927005
-0.0136371
0.0913985
-0.0107764
0.0904147
-0.00802406
0.089743
-0.00543547
0.0893704
-0.00305166
0.08928
-0.000899578
0.0894515
0.0010066
0.0898628
0.00266343
0.0904916
0.00407601
0.0913155
0.00525554
0.0923129
0.00621511
0.0934623
0.006968
0.0947429
0.00753832
0.00815907
0.0961623
0.130872
-0.024856
-0.133347
0.128262
-0.0260941
0.125529
-0.0272817
0.122683
-0.0282492
0.11974
-0.0289532
0.116717
-0.0293575
0.113635
-0.0294178
0.110529
-0.0291134
0.107436
-0.028429
0.104395
-0.0273614
0.101451
-0.0259228
0.0986479
-0.0241418
0.0960278
-0.0220631
0.0936299
-0.0197455
0.0914868
-0.017258
0.0896235
-0.0146747
0.0880564
-0.0120699
0.0867927
-0.00951273
0.0858318
-0.00706314
0.0851657
-0.00476941
0.0847811
-0.00266697
0.0846602
-0.000778709
0.084783
0.000883773
0.0851281
0.00231834
0.0856737
0.00353037
0.0863987
0.00453056
0.0872826
0.00533121
0.0883056
0.00594506
0.0894484
0.00639545
0.00688799
0.0907195
0.125224
-0.0223767
-0.127703
0.122623
-0.023493
0.119906
-0.0245649
0.117084
-0.0254275
0.114174
-0.0260431
0.111189
-0.0263724
0.108157
-0.0263858
0.10511
-0.0260665
0.102084
-0.025403
0.0991184
-0.0243958
0.096255
-0.0230594
0.0935359
-0.0214227
0.0910012
-0.0195284
0.0886868
-0.0174312
0.0866223
-0.0151935
0.0848298
-0.0128821
0.0833226
-0.0105628
0.082106
-0.00829611
0.0811773
-0.00613438
0.0805271
-0.00411928
0.0801413
-0.00228111
0.0800017
-0.000639169
0.0800884
0.000797114
0.0803801
0.00202658
0.0808559
0.00305461
0.0814953
0.0038912
0.0822788
0.00454766
0.0831879
0.00503601
0.0842048
0.00537848
0.00575492
0.0853379
0.119341
-0.0199088
-0.121808
0.116761
-0.0209136
0.114072
-0.0218756
0.111285
-0.0226411
0.108415
-0.0231727
0.105479
-0.023436
0.102505
-0.0234122
0.0995252
-0.0230867
0.0965745
-0.0224523
0.0936914
-0.0215127
0.0909162
-0.0202842
0.0882887
-0.0187953
0.0858467
-0.0170864
0.0836231
-0.0152075
0.0816445
-0.0132149
0.07993
-0.0111677
0.0784906
-0.00912336
0.0773291
-0.00713461
0.0764411
-0.00524639
0.0758161
-0.00349429
0.075439
-0.00190397
0.0752914
-0.000491551
0.0753531
0.000735382
0.0756033
0.00177635
0.0760214
0.00263652
0.0765876
0.00332501
0.0772833
0.003852
0.0780907
0.00422863
0.0789935
0.00447563
0.00474899
0.0799994
0.113197
-0.0174682
-0.115638
0.110652
-0.0183687
0.108002
-0.0192258
0.105261
-0.0199
0.102441
-0.0203525
0.0995645
-0.0205595
0.0966592
-0.0205069
0.0937561
-0.0201836
0.09089
-0.0195862
0.0880985
-0.0187212
0.0854201
-0.0176058
0.0828928
-0.0162679
0.0805515
-0.0147451
0.0784264
-0.0130824
0.0765412
-0.0113298
0.0749122
-0.00953875
0.073548
-0.0077591
0.0724492
-0.00603582
0.0716098
-0.00440705
0.0710183
-0.00290277
0.0706588
-0.00154441
0.0705125
-0.000345274
0.0705593
0.000688581
0.0707785
0.00155712
0.0711499
0.00226511
0.0716543
0.00282066
0.0722735
0.00323273
0.0729908
0.0035114
0.0737908
0.00367564
0.00385942
0.0746803
0.106758
-0.0150712
-0.109155
0.104261
-0.0158719
0.101665
-0.0166294
0.0989802
-0.0172156
0.0962236
-0.0175959
0.0934191
-0.017755
0.0905938
-0.0176816
0.0877786
-0.0173685
0.085008
-0.0168156
0.0823184
-0.0160316
0.0797469
-0.0150343
0.0773292
-0.0138501
0.0750974
-0.0125134
0.0730792
-0.0110641
0.0712953
-0.00954585
0.0697594
-0.00800284
0.0684775
-0.00647725
0.0674486
-0.00500692
0.0666652
-0.00362362
0.0661146
-0.00235219
0.0657804
-0.00121023
0.0656437
-0.000208572
0.0656843
0.000647987
0.0658817
0.00135967
0.0662162
0.00193071
0.0666687
0.00236808
0.0672219
0.00267951
0.0678595
0.00287386
0.068567
0.00296812
0.00307602
0.0693504
0.0999771
-0.0127353
-0.102313
0.0975451
-0.0134399
0.0950167
-0.0141009
0.0924033
-0.0146022
0.0897252
-0.0149178
0.0870064
-0.0150362
0.0842744
-0.0149496
0.0815602
-0.0146543
0.0788978
-0.0141531
0.0763224
-0.0134562
0.0738693
-0.0125812
0.0715718
-0.0115527
0.0694597
-0.0104013
0.0675574
-0.00916185
0.0658832
-0.00787161
0.064448
-0.00656766
0.0632558
-0.005285
0.0623036
-0.00405472
0.0615827
-0.00290274
0.0610797
-0.00184916
0.0607776
-0.000908189
0.0606575
-8.8478e-05
0.0606993
0.000606209
0.0608828
0.0011762
0.0611884
0.00162508
0.0615978
0.00195868
0.0620939
0.00218342
0.0626609
0.00230688
0.0632851
0.00234389
0.00238963
0.0639715
0.0927943
-0.0104802
-0.0950494
0.0904454
-0.011091
0.088001
-0.0116566
0.0854767
-0.0120778
0.0828939
-0.012335
0.0802772
-0.0124195
0.0776545
-0.0123269
0.075057
-0.0120568
0.0725177
-0.0116139
0.0700709
-0.0110094
0.0677496
-0.01026
0.065585
-0.00938798
0.0636038
-0.00842009
0.0618278
-0.00738586
0.0602723
-0.00631616
0.058946
-0.00524133
0.0578506
-0.0041896
0.0569817
-0.00318579
0.0563294
-0.00225047
0.0558797
-0.00139948
0.0556155
-0.00064398
0.0555178
9.24923e-06
0.0555667
0.000557288
0.0557424
0.00100045
0.0560259
0.00134163
0.0563991
0.0015855
0.0568453
0.0017372
0.0573492
0.00180298
0.0578977
0.00179537
0.00179255
0.0584948
0.0851255
-0.00832839
-0.0872773
0.0828795
-0.00884507
0.0805404
-0.00931748
0.0781261
-0.00966346
0.0756587
-0.00986763
0.0731639
-0.00992459
0.07067
-0.00983302
0.0682081
-0.0095948
0.0658104
-0.00921624
0.0635094
-0.00870837
0.0613362
-0.00808676
0.059319
-0.00737086
0.0574821
-0.00658313
0.055844
-0.00574782
0.0544176
-0.00488966
0.0532088
-0.00403257
0.0522177
-0.00319849
0.0514384
-0.00240652
0.0508603
-0.00167236
0.0504689
-0.00100807
0.0502471
-0.000422145
0.0501761
8.02545e-05
0.0502365
0.000496881
0.050409
0.000827948
0.0506749
0.00107566
0.0510169
0.00124357
0.0514185
0.00133558
0.0518648
0.00135664
0.0523433
0.00131691
0.00127899
0.0528568
0.0768493
-0.00630538
-0.0788723
0.0747321
-0.00672791
0.0725244
-0.00710982
0.0702454
-0.00738439
0.0679185
-0.0075408
0.0655705
-0.00757653
0.06323
-0.00749255
0.0609276
-0.00729241
0.0586944
-0.00698304
0.0565609
-0.00657488
0.0545557
-0.00608158
0.0527043
-0.0055194
0.0510276
-0.00490643
0.0495414
-0.00426163
0.0482556
-0.0036039
0.0471742
-0.00295116
0.0462954
-0.00231964
0.0456121
-0.00172327
0.0451132
-0.00117345
0.0447841
-0.000678944
0.0446079
-0.000245914
0.0445663
0.000121832
0.0446406
0.000422579
0.0448121
0.000656393
0.045063
0.000824803
0.0453762
0.000930337
0.045736
0.000975779
0.0461278
0.000964834
0.0465394
0.00090533
0.00084555
0.0469728
0.0677874
-0.00444402
-0.0696488
0.0658325
-0.00477296
0.0637889
-0.00506631
0.061678
-0.00527343
0.0595247
-0.00538755
0.0573565
-0.00540828
0.055202
-0.00533804
0.0530908
-0.00518119
0.0510522
-0.00494448
0.0491144
-0.0046371
0.0473031
-0.00427027
0.0456405
-0.00385676
0.0441443
-0.00341022
0.0428272
-0.00294453
0.0416964
-0.00247315
0.0407538
-0.00200856
0.0399961
-0.00156189
0.0394154
-0.00114258
0.0390002
-0.000758315
0.0387363
-0.000415017
0.0386073
-0.000116905
0.0385958
0.000133343
0.0386839
0.000334428
0.0388541
0.000486248
0.0390892
0.000589714
0.0393731
0.000646446
0.0396906
0.000658268
0.0400276
0.000627773
0.0403724
0.000560589
0.000491855
0.0407261
0.0576612
-0.00278785
-0.0593174
0.0559128
-0.00302454
0.054079
-0.00323247
0.0521827
-0.00337711
0.05025
-0.00345491
0.0483085
-0.0034667
0.0463859
-0.00341543
0.04451
-0.00330537
0.0427079
-0.0031424
0.0410047
-0.0029338
0.0394224
-0.00268801
0.0379797
-0.00241411
0.036691
-0.00212143
0.0355655
-0.00181909
0.0346081
-0.00151568
0.0338184
-0.00121894
0.0331922
-0.00093563
0.032721
-0.000671435
0.0323937
-0.000430967
0.0321965
-0.000217808
0.0321141
-3.45789e-05
0.0321305
0.000116954
0.0322291
0.000235829
0.0323936
0.000321789
0.0326081
0.000375209
0.0328576
0.000396941
0.0331278
0.000388025
0.0334055
0.000350123
0.0336792
0.000286877
0.000221401
0.0339497
0.0460084
-0.00140126
-0.047395
0.0445339
-0.00155003
0.04298
-0.00167856
0.0413703
-0.00176742
0.0397307
-0.00181527
0.0380872
-0.00182326
0.0364658
-0.00179402
0.0348915
-0.00173105
0.0333877
-0.00163865
0.0319757
-0.00152179
0.0306735
-0.00138582
0.0294956
-0.00123619
0.0284524
-0.0010782
0.0275501
-0.000916798
0.0267909
-0.000756455
0.026173
-0.000601056
0.0256913
-0.000453908
0.0253376
-0.000317756
0.0251014
-0.000194842
0.0249706
-8.69521e-05
0.0249314
4.5627e-06
0.0249697
7.87131e-05
0.0250707
0.000134783
0.0252201
0.000172439
0.0254036
0.000191672
0.0256078
0.000192729
0.0258198
0.000176032
0.0260275
0.000142494
0.0262203
9.40693e-05
4.31557e-05
0.0263985
0.0320034
-0.000398001
-0.0330066
0.030922
-0.000468693
0.0297718
-0.000528334
0.0285736
-0.000569177
0.02735
-0.000591714
0.0261241
-0.000597293
0.0249179
-0.000587827
0.0237522
-0.000565424
0.0226459
-0.000532331
0.021615
-0.00049086
0.0206724
-0.000443286
0.019828
-0.000391752
0.019088
-0.000338188
0.0184555
-0.00028428
0.0179305
-0.00023145
0.0175103
-0.000180872
0.0171899
-0.000133507
0.0169623
-9.01404e-05
0.0168189
-5.14352e-05
0.01675
-1.80776e-05
0.0167451
9.49435e-06
0.0167921
3.16611e-05
0.0168798
4.70789e-05
0.0169965
5.58027e-05
0.0171305
5.76552e-05
0.0172707
5.24909e-05
0.0174066
4.01829e-05
0.0175283
2.07392e-05
0.017628
-5.62361e-06
-3.26095e-05
0.0177038
0.0141154
-0.0145134
0.0136467
0.0131184
0.0125492
0.0119575
0.0113602
0.0107724
0.0102069
0.0096746
0.00918374
0.00874045
0.0083487
0.00801051
0.00772623
0.00749478
0.00731391
0.0071804
0.00709026
0.00703883
0.00702075
0.00703024
0.0070619
0.00710898
0.00716479
0.00722244
0.00727493
0.00731511
0.00733585
0.00733023
0.00729762
0.351201
-0.178914
0.333802
-0.17737
0.317031
-0.175064
0.300764
-0.172484
0.284894
-0.169663
0.269335
-0.166611
0.254032
-0.163345
0.238954
-0.159875
0.224085
-0.156211
0.20942
-0.15236
0.194961
-0.148328
0.180719
-0.144121
0.166706
-0.139742
0.152943
-0.135191
0.139451
-0.130467
0.126256
-0.125565
0.113385
-0.120477
0.100871
-0.115189
0.0887471
-0.109684
0.0770506
-0.103941
0.0658235
-0.0979277
0.0551136
-0.0916031
0.0449763
-0.0849121
0.0354776
-0.0777785
0.0266991
-0.0700938
0.0187477
-0.0616974
0.0117724
-0.0523421
0.00600054
-0.0416231
0.00183227
-0.0288384
-0.0126811
0.334608
-0.162287
0.318135
-0.160897
0.30208
-0.15901
0.286375
-0.156778
0.27096
-0.154248
0.255803
-0.151454
0.240884
-0.148425
0.226191
-0.145181
0.211721
-0.141741
0.197478
-0.138117
0.183471
-0.134322
0.169714
-0.130364
0.156222
-0.12625
0.143015
-0.121984
0.130114
-0.117566
0.117541
-0.112992
0.105321
-0.108257
0.0934828
-0.10335
0.0820549
-0.0982565
0.07107
-0.0929562
0.0605647
-0.0874224
0.0505807
-0.0816191
0.0411665
-0.0754979
0.0323803
-0.0689923
0.0242948
-0.0620083
0.0170057
-0.0544083
0.0106473
-0.0459837
0.00542291
-0.0363987
0.00167468
-0.0250901
-0.0110064
0.317334
-0.146539
0.30176
-0.145323
0.286441
-0.143691
0.271369
-0.141706
0.256529
-0.139408
0.241912
-0.136837
0.227515
-0.134027
0.213338
-0.131005
0.199389
-0.127792
0.185679
-0.124406
0.17222
-0.120863
0.159029
-0.117173
0.146123
-0.113345
0.133522
-0.109383
0.121245
-0.105289
0.109313
-0.101061
0.0977505
-0.0966943
0.0865806
-0.0921803
0.0758304
-0.0875062
0.0655288
-0.0826546
0.0557084
-0.077602
0.0464063
-0.072317
0.0376659
-0.0667575
0.0295394
-0.0608659
0.0220925
-0.0545614
0.0154116
-0.0477274
0.00961708
-0.0401892
0.00488916
-0.0316708
0.00151937
-0.0217203
-0.00948708
0.300857
-0.131556
0.28601
-0.130476
0.271335
-0.129016
0.25684
-0.127212
0.242536
-0.125104
0.228432
-0.122733
0.214538
-0.120134
0.200867
-0.117334
0.187434
-0.114358
0.174253
-0.111226
0.161342
-0.107952
0.148717
-0.104548
0.136395
-0.101023
0.124396
-0.0973831
0.112736
-0.0936294
0.101437
-0.0897613
0.0905174
-0.0857748
0.0799997
-0.0816626
0.0699072
-0.0774137
0.0602656
-0.0730131
0.0511039
-0.0684402
0.0424549
-0.0636681
0.0343574
-0.0586601
0.0268585
-0.0533669
0.020017
-0.0477199
0.0139106
-0.041621
0.00864653
-0.0349251
0.00438226
-0.0274065
0.00136375
-0.0187018
-0.00812332
0.285128
-0.117207
0.270879
-0.116226
0.256758
-0.114894
0.242788
-0.113242
0.228991
-0.111307
0.215388
-0.10913
0.201997
-0.106743
0.188837
-0.104175
0.175927
-0.101448
0.163283
-0.0985823
0.150924
-0.0955926
0.138867
-0.0924904
0.127128
-0.0892842
0.115724
-0.0859791
0.104672
-0.0825774
0.0939894
-0.0790787
0.0836942
-0.0754796
0.0738057
-0.071774
0.0643444
-0.0679524
0.0553332
-0.0640019
0.0467976
-0.0599047
0.0387671
-0.0556375
0.0312762
-0.0511692
0.0243671
-0.0464578
0.0180926
-0.0414454
0.0125218
-0.0360501
0.00774923
-0.0301526
0.00391122
-0.0235685
0.0012143
-0.0160049
-0.00690903
0.270122
-0.103396
0.256393
-0.102497
0.242776
-0.101278
0.229303
-0.099768
0.216
-0.0980045
0.202894
-0.0960236
0.190007
-0.0938566
0.177362
-0.0915296
0.164979
-0.0890643
0.152875
-0.0864782
0.141067
-0.0837854
0.129573
-0.0809965
0.118408
-0.0781192
0.107588
-0.0751583
0.0971262
-0.072116
0.0870396
-0.0689922
0.077344
-0.065784
0.0680561
-0.0624861
0.0591942
-0.0590906
0.0507785
-0.0555862
0.0428317
-0.0519579
0.0353799
-0.0481858
0.0284541
-0.0442435
0.022092
-0.0400957
0.0163405
-0.0356939
0.011261
-0.0309706
0.00693627
-0.0258278
0.00348338
-0.0201156
0.00107598
-0.0135975
-0.00583304
0.255842
-0.0900692
0.242593
-0.0892485
0.229456
-0.088141
0.216464
-0.0867765
0.20365
-0.0851897
0.191039
-0.0834135
0.178659
-0.081476
0.16653
-0.0794006
0.154672
-0.0772068
0.143104
-0.0749103
0.131843
-0.0725235
0.120902
-0.0700559
0.110297
-0.0675141
0.100041
-0.0649026
0.0901483
-0.0622232
0.0806321
-0.0594759
0.0715064
-0.0566583
0.0627864
-0.053766
0.054488
-0.0507922
0.0466291
-0.0477273
0.0392299
-0.0445587
0.0323138
-0.0412696
0.0259083
-0.037838
0.0200469
-0.0342343
0.0147716
-0.0304186
0.0101363
-0.0263354
0.0062132
-0.0219047
0.00310294
-0.0170054
0.000951995
-0.0114466
-0.00488105
0.242301
-0.0772006
0.229515
-0.0764628
0.216848
-0.0754738
0.204334
-0.0742627
0.192006
-0.0728616
0.179892
-0.0712992
0.168016
-0.0696002
0.1564
-0.0677852
0.145064
-0.0658708
0.134025
-0.0638706
0.123297
-0.0617954
0.112894
-0.0596532
0.10283
-0.0574499
0.0931163
-0.0551891
0.0837655
-0.0528724
0.0747894
-0.0504999
0.0662006
-0.0480695
0.0580122
-0.0455776
0.0502383
-0.0430184
0.042895
-0.0403839
0.036
-0.0376637
0.0295743
-0.0348439
0.0236424
-0.0319061
0.0182342
-0.0288261
0.0133869
-0.0255713
0.00914805
-0.0220965
0.00558047
-0.0183371
0.00277089
-0.0141958
0.000843666
-0.00951934
-0.00403738
0.229512
-0.0647835
0.217186
-0.0641364
0.204987
-0.0632749
0.192951
-0.0622269
0.18111
-0.0610202
0.16949
-0.0596797
0.158116
-0.0582263
0.147008
-0.0566774
0.136185
-0.055047
0.125661
-0.0533466
0.11545
-0.051585
0.105566
-0.049769
0.0960195
-0.0479034
0.0868216
-0.0459912
0.0779831
-0.0440338
0.0695144
-0.0420313
0.0614267
-0.0399818
0.0537316
-0.0378825
0.0464418
-0.0357285
0.0395713
-0.0335135
0.0331363
-0.0312287
0.0271552
-0.0288628
0.02165
-0.026401
0.0166476
-0.0238236
0.0121807
-0.0211045
0.00829143
-0.0182072
0.00503478
-0.0150805
0.00248583
-0.0116469
0.000751017
-0.00778453
-0.00328637
0.21748
-0.0528202
0.205616
-0.0522722
0.193888
-0.0515471
0.182331
-0.05067
0.170976
-0.0496648
0.159848
-0.0485517
0.14897
-0.0473481
0.13836
-0.0460681
0.128036
-0.044723
0.118012
-0.0433222
0.1083
-0.0418728
0.098911
-0.0403803
0.0898562
-0.0388486
0.0811451
-0.03728
0.0727869
-0.0356757
0.0647913
-0.0340357
0.057168
-0.0323585
0.0499274
-0.0306419
0.0430808
-0.0288819
0.0366408
-0.0270735
0.0306218
-0.0252096
0.0250404
-0.0232814
0.0199164
-0.021277
0.0152738
-0.0191809
0.0111418
-0.0169725
0.00755779
-0.0146232
0.00457022
-0.0120929
0.00224465
-0.00932128
0.000673206
-0.00621308
-0.00261316
0.206196
-0.041317
0.194798
-0.0408749
0.183544
-0.040293
0.172467
-0.0395926
0.161595
-0.0387927
0.150953
-0.0379096
0.140561
-0.0369566
0.130438
-0.0359448
0.120598
-0.0348831
0.111055
-0.0337787
0.101819
-0.0326371
0.0929012
-0.0314626
0.0843107
-0.0302581
0.0760563
-0.0290256
0.0681464
-0.0277658
0.0605893
-0.0264786
0.053394
-0.0251632
0.0465697
-0.0238176
0.0401266
-0.0224388
0.0340761
-0.0210229
0.0284311
-0.0195646
0.0232068
-0.018057
0.0184209
-0.0164911
0.014095
-0.014855
0.0102555
-0.013133
0.00693587
-0.0113035
0.0041791
-0.00933614
0.00204316
-0.00718534
0.000608874
-0.0047788
-0.00200429
0.195635
-0.0302805
0.184709
-0.0299488
0.17393
-0.0295139
0.16333
-0.0289926
0.152936
-0.028399
0.142772
-0.0277449
0.132855
-0.0270402
0.123203
-0.026293
0.11383
-0.0255098
0.104747
-0.0246957
0.0959649
-0.023855
0.0874927
-0.0229905
0.0793389
-0.0221044
0.0715115
-0.0211981
0.064018
-0.0202723
0.0568661
-0.0193268
0.0500638
-0.0183609
0.0436194
-0.0173732
0.0375424
-0.0163617
0.0318429
-0.0153235
0.0265329
-0.0142546
0.0216261
-0.0131502
0.0171387
-0.0120037
0.0130903
-0.0108067
0.00950498
-0.00954773
0.00641286
-0.00821143
0.00385277
-0.00677605
0.00187658
-0.00520914
0.000556403
-0.00345863
-0.00144788
0.185762
-0.0197151
0.175308
-0.0194956
0.165003
-0.0192087
0.154876
-0.0188656
0.144953
-0.0184758
0.135255
-0.0180469
0.1258
-0.0175854
0.116604
-0.0170964
0.107678
-0.0165842
0.0990346
-0.0160522
0.0906827
-0.015503
0.0826308
-0.0149386
0.0748867
-0.0143603
0.0674575
-0.0137689
0.0603503
-0.013165
0.0535721
-0.0125485
0.04713
-0.0119189
0.041032
-0.0112752
0.0352866
-0.0106162
0.0299031
-0.00994002
0.0248926
-0.0092441
0.0202676
-0.00852527
0.0160433
-0.00777935
0.0122375
-0.00700088
0.00887234
-0.00618259
0.00597547
-0.00531456
0.0035823
-0.00438289
0.00173999
-0.00336683
0.000514099
-0.00223273
-0.000933786
0.176529
-0.00962225
0.166547
-0.00951402
0.156711
-0.0093729
0.14705
-0.00920448
0.137588
-0.00901331
0.128344
-0.00880317
0.119336
-0.00857717
0.110577
-0.00833787