/*--------------------------------*- C++ -*----------------------------------*\
  =========                 |
  \\      /  F ield         | OpenFOAM: The Open Source CFD Toolbox
   \\    /   O peration     | Website:  https://openfoam.org
    \\  /    A nd           | Version:  12
     \\/     M anipulation  |
\*---------------------------------------------------------------------------*/
FoamFile
{
    format      ascii;
    class       volScalarField;
    location    "100";
    object      pMean;
}
// * * * * * * * * * * * * * * * * * * * * * * * * * * * * * * * * * * * * * //

dimensions      [0 2 -2 0 0 0 0];

internalField   nonuniform List<scalar> 
6750
(
-0.0125991
-0.0126345
-0.0127059
-0.0129059
-0.0137858
-0.0106364
-0.0106497
-0.0107475
-0.0109832
-0.0112901
-0.00846104
-0.00849444
-0.00859487
-0.0087647
-0.00888222
-0.00624202
-0.00631011
-0.00640482
-0.00651862
-0.00656428
-0.00406789
-0.00417948
-0.00428285
-0.00436727
-0.00437438
-0.00201781
-0.00217713
-0.00229917
-0.00237006
-0.00235635
-0.00014094
-0.000349163
-0.000493156
-0.000556569
-0.000529587
0.00153297
0.00127668
0.00111091
0.00105326
0.0010906
0.00298548
0.00268358
0.00249798
0.00244591
0.00249201
0.00420674
0.00386321
0.00366071
0.00361438
0.00366786
0.00519462
0.00481474
0.00459887
0.00455826
0.00461769
0.0059541
0.00554401
0.00531869
0.00528345
0.00534729
0.00649662
0.00606237
0.00583213
0.00580148
0.00586813
0.0068388
0.00638601
0.00615664
0.00612865
0.00619622
0.00699647
0.00653789
0.00631401
0.00628437
0.00635068
0.00699692
0.00653835
0.00631448
0.00628485
0.00635116
0.00684016
0.00638739
0.00615804
0.00613007
0.00619765
0.00649888
0.00606465
0.00583445
0.00580383
0.0058705
0.00595725
0.00554719
0.00532191
0.00528672
0.00535059
0.00519864
0.00481879
0.00460297
0.00456242
0.00462187
0.0042116
0.0038681
0.00366567
0.0036194
0.00367291
0.00299115
0.00268929
0.00250376
0.00245175
0.00249788
0.00153942
0.00128317
0.00111748
0.00105991
0.0010973
-0.000133776
-0.000341949
-0.000485855
-0.000549163
-0.000522115
-0.00200999
-0.00216927
-0.00229121
-0.002362
-0.00234824
-0.00405951
-0.00417104
-0.00427432
-0.00435864
-0.00436573
-0.00623315
-0.00630118
-0.00639581
-0.00650952
-0.0065552
-0.00845177
-0.00848512
-0.00858547
-0.00875524
-0.00887285
-0.0106268
-0.0106401
-0.0107379
-0.0109735
-0.0112806
-0.0125893
-0.0126247
-0.012696
-0.012896
-0.0137759
-0.0189676
-0.0185356
-0.0173723
-0.0165385
-0.0159517
-0.0154881
-0.0151179
-0.0148195
-0.0145677
-0.0143621
-0.0141849
-0.014002
-0.0138246
-0.0136527
-0.0134894
-0.0133417
-0.0132179
-0.0131249
-0.0130691
-0.0130529
-0.0130658
-0.0130949
-0.0131474
-0.0132145
-0.0132868
-0.0133581
-0.013422
-0.0134566
-0.0134511
-0.0136287
-0.015522
-0.0149268
-0.0143067
-0.0140253
-0.013879
-0.0137907
-0.0137544
-0.013753
-0.0137684
-0.013817
-0.0138612
-0.0138616
-0.01383
-0.0137609
-0.0136566
-0.0135274
-0.0133881
-0.0132545
-0.0131419
-0.0130614
-0.0130235
-0.0130463
-0.0131018
-0.0131932
-0.0133147
-0.0134595
-0.0136221
-0.0137824
-0.0138812
-0.0140143
-0.0131411
-0.0130161
-0.0127668
-0.0126662
-0.0126248
-0.0126276
-0.0126816
-0.0127725
-0.0128937
-0.0130727
-0.0132521
-0.0134126
-0.0135609
-0.0136855
-0.0137808
-0.0138469
-0.0138877
-0.0139105
-0.0139237
-0.0139359
-0.0139554
-0.0139777
-0.0140173
-0.0140724
-0.0141417
-0.0142239
-0.0143213
-0.0144243
-0.0144582
-0.014444
-0.0116006
-0.0117812
-0.0116655
-0.0116078
-0.0116077
-0.0116621
-0.0117733
-0.0119291
-0.0121337
-0.0124155
-0.0127064
-0.0130079
-0.013318
-0.0136209
-0.0139045
-0.0141599
-0.0143809
-0.0145649
-0.0147125
-0.0148267
-0.014912
-0.0149703
-0.0150122
-0.0150426
-0.0150657
-0.0150856
-0.0151105
-0.0151395
-0.0150846
-0.0148876
-0.0103441
-0.0106239
-0.0105634
-0.0105541
-0.0106142
-0.010736
-0.0109179
-0.0111525
-0.0114545
-0.0118403
-0.0122463
-0.0126835
-0.0131417
-0.013602
-0.0140475
-0.0144629
-0.0148353
-0.0151555
-0.0154185
-0.0156236
-0.0157735
-0.0158734
-0.0159313
-0.0159556
-0.0159544
-0.0159354
-0.015912
-0.015889
-0.015763
-0.0153835
-0.00919318
-0.00948975
-0.00947458
-0.0095249
-0.0096521
-0.00984494
-0.0101023
-0.0104222
-0.0108296
-0.0113193
-0.0118437
-0.0124132
-0.0130119
-0.0136181
-0.0142109
-0.0147701
-0.0152777
-0.0157201
-0.0160885
-0.0163794
-0.0165943
-0.0167385
-0.0168207
-0.0168508
-0.0168391
-0.0167964
-0.0167399
-0.0166791
-0.0164963
-0.0159482
-0.00811891
-0.00840242
-0.00843166
-0.00854177
-0.00873399
-0.00899707
-0.00933003
-0.00973778
-0.0102524
-0.010844
-0.0114869
-0.0121851
-0.0129184
-0.0136629
-0.0143939
-0.0150874
-0.0157214
-0.0162785
-0.016747
-0.0171213
-0.0174018
-0.0175935
-0.0177056
-0.0177493
-0.0177365
-0.0176797
-0.0176003
-0.0175107
-0.0172793
-0.0165815
-0.00710515
-0.00736043
-0.00743072
-0.00759946
-0.0078554
-0.00818894
-0.00859899
-0.00909846
-0.00971781
-0.010411
-0.0111717
-0.0119952
-0.0128584
-0.013735
-0.0145973
-0.0154177
-0.016171
-0.016837
-0.0174015
-0.0178572
-0.0182035
-0.0184452
-0.0185917
-0.0186551
-0.0186483
-0.0185859
-0.0184918
-0.0183813
-0.0181085
-0.01728
-0.00613462
-0.00635258
-0.00646213
-0.00668993
-0.00701039
-0.00741502
-0.00790544
-0.00850098
-0.00922012
-0.0100172
-0.0108949
-0.0118409
-0.0128301
-0.013834
-0.0148221
-0.0157636
-0.0166309
-0.0174011
-0.0180582
-0.0185936
-0.0190056
-0.0192991
-0.0194834
-0.0195714
-0.0195768
-0.0195158
-0.0194143
-0.0192893
-0.0189813
-0.0180406
-0.00519411
-0.00537091
-0.00551972
-0.00580725
-0.0061939
-0.00667082
-0.00724396
-0.00793924
-0.00875526
-0.00965883
-0.0106527
-0.0117194
-0.012832
-0.0139597
-0.0150694
-0.016128
-0.0171053
-0.0179765
-0.0187239
-0.0193377
-0.0198157
-0.0201624
-0.0203875
-0.0205041
-0.0205269
-0.0204728
-0.0203706
-0.0202371
-0.0198982
-0.0188608
-0.00427423
-0.00440845
-0.00459615
-0.00494563
-0.0054009
-0.00595154
-0.00661023
-0.0074073
-0.00831949
-0.00933188
-0.0104419
-0.0116283
-0.0128626
-0.0141119
-0.0153407
-0.0165137
-0.0175985
-0.0185687
-0.0194051
-0.0200969
-0.0206414
-0.0210429
-0.0213112
-0.0214599
-0.0215042
-0.021462
-0.0213646
-0.0212276
-0.0208611
-0.0197395
-0.00336709
-0.00345823
-0.0036849
-0.0040982
-0.00462424
-0.00525215
-0.00600166
-0.00689834
-0.0079093
-0.0090327
-0.0102593
-0.0115655
-0.0129209
-0.0142909
-0.0156376
-0.0169236
-0.0181148
-0.0191831
-0.0201082
-0.0208783
-0.0214904
-0.0219484
-0.0222624
-0.0224463
-0.0225157
-0.0224897
-0.0224016
-0.0222654
-0.0218743
-0.0206774
-0.00246491
-0.00251281
-0.00277867
-0.00325862
-0.00385769
-0.00456665
-0.00541299
-0.00640685
-0.00752125
-0.00875786
-0.0101024
-0.0115292
-0.0130064
-0.0144971
-0.0159617
-0.0173607
-0.0186584
-0.0198251
-0.0208395
-0.0216891
-0.0223703
-0.0228871
-0.0232495
-0.0234716
-0.0235696
-0.0235635
-0.023489
-0.0233577
-0.0229437
-0.0216772
-0.0015603
-0.00156452
-0.00186965
-0.00241928
-0.00309427
-0.0038888
-0.00483679
-0.00592818
-0.00715105
-0.00850376
-0.00996839
-0.0115178
-0.0131185
-0.0147314
-0.0163151
-0.0178283
-0.0192336
-0.0205002
-0.0216056
-0.0225367
-0.0232895
-0.0238676
-0.0242814
-0.0245451
-0.0246751
-0.0246928
-0.024636
-0.0245134
-0.0240776
-0.0227445
-0.000646442
-0.000602959
-0.000947443
-0.00157007
-0.00232695
-0.00321416
-0.00426439
-0.00545776
-0.00679429
-0.00826683
-0.00985495
-0.0115301
-0.013257
-0.0149947
-0.0166999
-0.0183297
-0.0198451
-0.0212142
-0.0224135
-0.0234291
-0.0242566
-0.0248995
-0.0253681
-0.025677
-0.0258429
-0.0258883
-0.0258534
-0.025743
-0.0252865
-0.0238873
0.000284501
0.000383452
-2.93737e-07
-0.000700537
-0.00154624
-0.00253535
-0.00368806
-0.00499075
-0.00644644
-0.00804346
-0.00975961
-0.0115648
-0.013422
-0.0152884
-0.0171188
-0.0188689
-0.0204983
-0.0219737
-0.0232707
-0.0243749
-0.0252812
-0.0259931
-0.0265209
-0.0268791
-0.0270851
-0.0271625
-0.0271539
-0.0270595
-0.026583
-0.0251168
0.00124296
0.00140855
0.000984881
0.000200817
-0.000742741
-0.00184188
-0.00310053
-0.00452086
-0.00610222
-0.00782977
-0.00967984
-0.0116208
-0.0136137
-0.015614
-0.0175749
-0.0194505
-0.0211989
-0.0227858
-0.0241858
-0.0253838
-0.0263742
-0.0271604
-0.0277525
-0.0281652
-0.0284161
-0.0285304
-0.0285532
-0.0284787
-0.027983
-0.0264478
0.00224636
0.0024864
0.00202376
0.00114531
9.17372e-05
-0.00112013
-0.00249383
-0.00404087
-0.00575578
-0.00762151
-0.00961301
-0.011697
-0.0138326
-0.0159738
-0.018072
-0.0200796
-0.0219537
-0.0236588
-0.0251685
-0.0264669
-0.027548
-0.0284149
-0.0290777
-0.029551
-0.0298526
-0.0300097
-0.0300696
-0.0300199
-0.0295062
-0.0278994
0.00331422
0.0036332
0.00313201
0.00214906
0.000972291
-0.000357383
-0.00185846
-0.00354245
-0.00540049
-0.00741396
-0.00955627
-0.0117924
-0.0140798
-0.0163705
-0.0186145
-0.0207627
-0.022771
-0.0246025
-0.0262302
-0.0276372
-0.0288172
-0.0297728
-0.0305139
-0.0310555
-0.0314152
-0.031622
-0.0317256
-0.0317063
-0.0311759
-0.0294955
0.00446835
0.00487547
0.00433183
0.00322877
0.00191946
0.000460051
-0.00118167
-0.00301506
-0.00502842
-0.00720163
-0.00950651
-0.0119063
-0.0143565
-0.0168078
-0.0192083
-0.0215077
-0.0236605
-0.0256288
-0.0273847
-0.0289105
-0.0301992
-0.0312532
-0.0320823
-0.0327011
-0.0331277
-0.0333927
-0.0335484
-0.0335664
-0.0330225
-0.0312668
0.00574161
0.00624195
0.00564886
0.00441058
0.00295794
0.00135051
-0.000448213
-0.00244617
-0.00463008
-0.0069781
-0.00946026
-0.012038
-0.0146651
-0.0172904
-0.0198608
-0.0223244
-0.0246346
-0.0267525
-0.028649
-0.030306
-0.0317158
-0.0328801
-0.0338087
-0.034516
-0.0350203
-0.0353544
-0.0355734
-0.0356369
-0.0350833
-0.0332525
0.00717729
0.00777044
0.00711574
0.00572972
0.00411466
0.00233759
0.000361932
-0.00182009
-0.0041939
-0.00673574
-0.00941371
-0.0121873
-0.0150088
-0.0178252
-0.0205819
-0.023226
-0.0257094
-0.0279924
-0.030045
-0.0318483
-0.033394
-0.0346834
-0.0357259
-0.0365356
-0.0371311
-0.0375472
-0.0378417
-0.0379626
-0.0374062
-0.0355031
0.00883282
0.00951505
0.00878546
0.00723216
0.005426
0.00345275
0.00127446
-0.00111688
-0.00370542
-0.00646534
-0.00936267
-0.0123551
-0.0153928
-0.0184216
-0.0213853
-0.0242297
-0.0269059
-0.0293732
-0.0316009
-0.0335692
-0.0352692
-0.0367019
-0.0378761
-0.0388056
-0.0395096
-0.0400241
-0.0404101
-0.0406037
-0.040055
-0.0380856
0.0107919
0.0115546
0.0107305
0.00897498
0.00694109
0.0047371
0.00232286
-0.000310726
-0.00314632
-0.00615575
-0.00930282
-0.0125432
-0.0158254
-0.0190934
-0.02229
-0.0253599
-0.0282533
-0.0309288
-0.033355
-0.0355116
-0.0373889
-0.0389874
-0.0403154
-0.0413865
-0.04222
-0.0428541
-0.0433523
-0.0436377
-0.0431131
-0.0410899
0.0131815
0.013999
0.0130435
0.0110379
0.00872891
0.00624767
0.00355267
0.00063281
-0.00249285
-0.00579338
-0.00923016
-0.0127567
-0.0163196
-0.0198616
-0.0233242
-0.0266514
-0.029793
-0.0327068
-0.0353611
-0.0377349
-0.0398183
-0.0416111
-0.0431211
-0.0443614
-0.0453516
-0.0461329
-0.0467692
-0.047171
-0.046694
-0.0446397
0.0161818
0.0170116
0.015862
0.0135397
0.0108886
0.00806665
0.00502858
0.00176149
-0.00171329
-0.0053617
-0.00914227
-0.0130061
-0.0168982
-0.0207597
-0.0245314
-0.0281572
-0.0315864
-0.0347772
-0.0376974
-0.0403259
-0.0426523
-0.0446758
-0.0464038
-0.0478487
-0.0490304
-0.0499929
-0.0508029
-0.0513545
-0.0509615
-0.0489141
0.0200976
0.0208382
0.0193942
0.0166581
0.0135724
0.0103175
0.0068455
0.00314289
-0.000765847
-0.00484271
-0.00904281
-0.0133146
-0.0176013
-0.0218434
-0.0259815
-0.0299599
-0.033729
-0.0372475
-0.0404838
-0.0434169
-0.0460359
-0.0483395
-0.0503343
-0.0520316
-0.0534514
-0.0546394
-0.0556642
-0.0564098
-0.0561535
-0.0541786
0.0254677
0.0258994
0.0239684
0.0206658
0.0170035
0.0131755
0.00913331
0.00486494
0.000399199
-0.00422111
-0.00894709
-0.0137244
-0.0184949
-0.0231988
-0.0277782
-0.0321794
-0.0363551
-0.0402664
-0.0438834
-0.0471859
-0.0501636
-0.0528147
-0.0551446
-0.0571637
-0.0588914
-0.0603736
-0.0616787
-0.0626879
-0.062673
-0.0609093
0.0332413
0.0329632
0.0302481
0.0261769
0.0217346
0.0171064
0.0122536
0.00717836
0.00192184
-0.00346292
-0.00891935
-0.0143884
-0.0198104
-0.0251269
-0.0302836
-0.0352312
-0.0399276
-0.0443391
-0.0484385
-0.0522079
-0.0556407
-0.0587315
-0.0614807
-0.0638967
-0.0659955
-0.0678181
-0.0694269
-0.0707209
-0.0710512
-0.0697401
0.0470555
0.0450025
0.0405613
0.0350968
0.0293294
0.023358
0.0171724
0.0108082
0.00432707
-0.00220652
-0.00873076
-0.0151872
-0.0215221
-0.0276875
-0.033642
-0.0393511
-0.0447859
-0.0499224
-0.0547431
-0.0592336
-0.0633788
-0.067176
-0.0706253
-0.073726
-0.0764827
-0.0789183
-0.0810823
-0.0829514
-0.0841096
-0.0837645
-0.0157501
-0.0146408
-0.0128416
-0.0113523
-0.0100507
-0.00881237
-0.00761094
-0.00643984
-0.00529024
-0.00415259
-0.00301758
-0.00187539
-0.000715301
0.000474294
0.00170606
0.0029948
0.00435802
0.00581676
0.00739514
0.00912187
0.0110349
0.0131817
0.0156235
0.0184425
0.0217525
0.0257181
0.0305589
0.0365884
0.0439921
0.0538969
-0.0113179
-0.0101857
-0.00892698
-0.00783874
-0.00683343
-0.0058535
-0.00488815
-0.0039328
-0.00297995
-0.00202133
-0.00104876
-5.38526e-05
0.000972388
0.00203976
0.00315942
0.00434461
0.00561135
0.00697925
0.00847216
0.0101203
0.0119634
0.0140531
0.0164585
0.0192746
0.0226357
0.0267372
0.0318589
0.0384308
0.046938
0.058532
-0.00868618
-0.00766612
-0.00666687
-0.00575135
-0.00484901
-0.00394124
-0.00302982
-0.00211297
-0.00118517
-0.000239977
0.000729454
0.00173062
0.00277186
0.00386263
0.00501396
0.00623904
0.00755399
0.00897868
0.0105379
0.0122633
0.0141967
0.0163929
0.0189266
0.0219012
0.0254636
0.0298269
0.0353044
0.0423806
0.0517113
0.0645253
-0.00635142
-0.00544207
-0.00455795
-0.00372468
-0.0028895
-0.00203988
-0.00117556
-0.000292977
0.00061372
0.00155088
0.00252522
0.00354415
0.00461604
0.00575052
0.00695897
0.00825512
0.00965578
0.0111818
0.0128593
0.0147222
0.0168143
0.0191939
0.0219401
0.0251619
0.0290134
0.0337167
0.039598
0.047151
0.0571172
0.0707405
-0.00416894
-0.00335714
-0.00256657
-0.00180817
-0.00103624
-0.000238441
0.000586967
0.00144365
0.0023369
0.00327255
0.00425696
0.00529739
0.0064022
0.00758125
0.00884633
0.0102118
0.0116952
0.0133185
0.0151096
0.0171039
0.0193479
0.0219028
0.0248514
0.0283074
0.0324303
0.0374487
0.0436964
0.0516719
0.0621955
0.0765458
-0.0021712
-0.0014479
-0.000738733
-4.42043e-05
0.000676921
0.0014356
0.00223343
0.00307369
0.00396114
0.0049012
0.00590001
0.00696465
0.00810349
0.00932653
0.0106458
0.0120761
0.0136358
0.0153476
0.0172405
0.0193515
0.0217289
0.0244363
0.0275595
0.0312156
0.0355687
0.0408526
0.0474088
0.0557443
0.0667582
0.0817994
-0.000366476
0.000276684
0.000915639
0.00155727
0.00223808
0.00296702
0.00374528
0.00457577
0.00546281
0.00641147
0.0074276
0.00851813
0.00969139
0.0109574
0.0123285
0.0138198
0.01545
0.0172428
0.0192278
0.0214432
0.0239388
0.0267798
0.0300541
0.0338818
0.0384301
0.0439374
0.0507523
0.0593916
0.0708199
0.0864739
0.00123719
0.00180784
0.00238615
0.00298414
0.00363294
0.0043393
0.00510398
0.00592949
0.0068197
0.0077793
0.00881388
0.00993021
0.0111365
0.012443
0.013862
0.015409
0.017103
0.0189683
0.0210353
0.0233429
0.0259418
0.0288988
0.0323034
0.0362774
0.040991
0.0466859
0.0537169
0.0626099
0.0743799
0.0905416
0.00262979
0.0031354
0.003662
0.00422458
0.00484834
0.00553788
0.00629349
0.0071173
0.00801273
0.0089841
0.0100367
0.0111773
0.0124139
0.0137567
0.0152184
0.0168144
0.0185644
0.0204927
0.0226303
0.025017
0.0277041
0.0307593
0.0342734
0.0383698
0.0432206
0.0490702
0.0562786
0.0653795
0.0774278
0.0939861
0.00380395
0.00425253
0.00473618
0.00527074
0.00587533
0.00655258
0.0073024
0.00812654
0.009028
0.0100108
0.0110799
0.012242
0.0135051
0.0148794
0.0163776
0.0180153
0.0198124
0.0217936
0.0239903
0.0264426
0.0292026
0.0323386
0.0359422
0.0401381
0.0450998
0.0510737
0.058424
0.0676899
0.0799544
0.0968235
0.00475724
0.00515761
0.00560685
0.00611995
0.00671025
0.00737872
0.00812503
0.00895054
0.00985792
0.0108509
0.0119343
0.0131145
0.0143997
0.0158
0.017328
0.0189998
0.0208352
0.0228591
0.0251033
0.0276081
0.0304262
0.0336263
0.0373007
0.0415749
0.0466234
0.052694
0.0601541
0.069546
0.0819702
0.0990875
0.00549305
0.00585471
0.00627774
0.00677508
0.00735512
0.00801755
0.00876183
0.00958907
0.0105016
0.0115029
0.0125978
0.0137925
0.015095
0.0165156
0.0180669
0.019765
0.0216299
0.0236866
0.0259671
0.0285121
0.0313744
0.0346232
0.0383511
0.0426842
0.0477979
0.0539405
0.0614823
0.0709654
0.0835051
0.10081
0.00602047
0.0063534
0.00675784
0.00724436
0.00781745
0.00847594
0.00921916
0.010048
0.0109646
0.0119722
0.0130755
0.0142808
0.0155959
0.0170312
0.0185994
0.0203164
0.0222024
0.0242826
0.0265891
0.0291627
0.0320564
0.0353397
0.0391055
0.0434802
0.0486397
0.0548327
0.0624321
0.0719759
0.0845978
0.102031
0.00635361
0.00666785
0.00706062
0.00754053
0.00810944
0.00876563
0.00950837
0.0103384
0.0112577
0.0122695
0.0133783
0.0145904
0.0159137
0.0173584
0.0189372
0.0206664
0.0225658
0.024661
0.0269839
0.0295756
0.0324892
0.0357944
0.0395841
0.0439851
0.0491735
0.0553979
0.0630337
0.0726128
0.0852823
0.102807
0.00651031
0.00681548
0.00720274
0.0076796
0.00824661
0.0089018
0.0096444
0.0104751
0.0113958
0.0124096
0.0135211
0.0147365
0.0160636
0.0175128
0.0190968
0.0208317
0.0227377
0.0248399
0.0271708
0.0297711
0.0326943
0.0360099
0.0398111
0.0442246
0.0494267
0.0556661
0.0633195
0.0729136
0.0855996
0.103184
0.00651079
0.00681596
0.00720321
0.00768007
0.00824707
0.00890226
0.00964485
0.0104755
0.0113962
0.01241
0.0135215
0.0147368
0.016064
0.0175132
0.0190972
0.020832
0.0227379
0.0248402
0.027171
0.0297714
0.0326945
0.0360102
0.0398114
0.0442249
0.049427
0.0556664
0.0633197
0.0729138
0.0855999
0.103185
0.00635505
0.00666929
0.00706205
0.00754194
0.00811082
0.00876699
0.00950971
0.0103397
0.011259
0.0122707
0.0133795
0.0145916
0.0159148
0.0173594
0.0189382
0.0206673
0.0225667
0.0246618
0.0269847
0.0295764
0.03249
0.0357952
0.039585
0.043986
0.0491744
0.0553987
0.0630343
0.0726132
0.0852832
0.102808
0.00602286
0.00635579
0.00676021
0.00724669
0.00781974
0.00847819
0.00922136
0.0100502
0.0109667
0.0119742
0.0130775
0.0142827
0.0155978
0.0170329
0.018601
0.020318
0.0222039
0.024284
0.0265904
0.029164
0.0320577
0.035341
0.0391069
0.0434817
0.0486412
0.0548341
0.0624332
0.0719769
0.0845992
0.102033
0.00549637
0.00585803
0.00628102
0.0067783
0.00735828
0.00802066
0.00876488
0.00959205
0.0105045
0.0115058
0.0126005
0.0137951
0.0150975
0.016518
0.0180692
0.0197672
0.021632
0.0236886
0.025969
0.028514
0.0313762
0.0346251
0.038353
0.0426862
0.0477999
0.0539425
0.0614841
0.070967
0.0835072
0.100813
0.00476145
0.00516181
0.00561101
0.00612403
0.00671425
0.00738265
0.00812887
0.00895429
0.00986157
0.0108544
0.0119377
0.0131178
0.0144028
0.015803
0.0173309
0.0190026
0.0208378
0.0228617
0.0251058
0.0276106
0.0304286
0.0336287
0.0373031
0.0415773
0.0466259
0.0526967
0.0601567
0.0695485
0.081973
0.0990903
0.00380901
0.0042576
0.00474118
0.00527564
0.00588013
0.00655728
0.007307
0.00813102
0.00903236
0.010015
0.011084
0.0122459
0.0135088
0.014883
0.016381
0.0180187
0.0198157
0.0217968
0.0239934
0.0264457
0.0292056
0.0323415
0.0359451
0.0401409
0.0451028
0.0510772
0.0584277
0.0676935
0.0799581
0.0968265
0.00263569
0.0031413
0.0036678
0.00423026
0.00485389
0.00554331
0.0062988
0.00712247
0.00801776
0.00898896
0.0100414
0.0111818
0.0124182
0.0137609
0.0152224
0.0168183
0.0185682
0.0204964
0.022634
0.0250206
0.0277076
0.0307627
0.0342766
0.038373
0.0432241
0.0490746
0.0562835
0.0653842
0.0774324
0.0939893
0.00124394
0.00181455
0.00239272
0.00299055
0.0036392
0.00434541
0.00510995
0.0059353
0.00682535
0.00778478
0.00881916
0.00993529
0.0111414
0.0124477
0.0138665
0.0154134
0.0171074
0.0189726
0.0210395
0.023347
0.0259458
0.0289026
0.032307
0.036281
0.040995
0.0466911
0.053723
0.0626158
0.0743849
0.0905452
-0.00035898
0.000284117
0.000922905
0.00156435
0.00224499
0.00297376
0.00375186
0.00458217
0.00546904
0.00641751
0.00743344
0.00852377
0.00969682
0.0109627
0.0123336
0.0138247
0.0154549
0.0172476
0.0192325
0.0214479
0.0239432
0.026784
0.0300581
0.0338858
0.0384348
0.0439436
0.0507596
0.0593985
0.0708252
0.0864778
-0.0021631
-0.00143986
-0.000730865
-3.65278e-05
0.000684417
0.00144292
0.00224057
0.00308065
0.00396791
0.00490779
0.00590639
0.00697083
0.00810945
0.00933227
0.0106514
0.0120816
0.0136411
0.0153529
0.0172457
0.0193566
0.0217338
0.024441
0.027564
0.0312203
0.0355742
0.0408597
0.0474172
0.0557521
0.0667637
0.0818031
-0.00416033
-0.00334859
-0.00255819
-0.00179997
-0.00102822
-0.000230601
0.000594625
0.00145112
0.00234418
0.00327963
0.00426385
0.00530407
0.00640866
0.00758749
0.00885237
0.0102176
0.0117009
0.0133242
0.0151152
0.0171094
0.0193532
0.0219079
0.0248565
0.0283128
0.0324367
0.0374568
0.0437056
0.0516801
0.0622012
0.0765492
-0.0063424
-0.00543311
-0.00454915
-0.00371605
-0.00288103
-0.00203158
-0.00116743
-0.000285039
0.000621468
0.00155844
0.00253259
0.00355132
0.00462299
0.00575724
0.00696548
0.00826146
0.00966199
0.0111879
0.0128654
0.0147281
0.01682
0.0191995
0.0219457
0.025168
0.0290206
0.0337256
0.0396076
0.0471593
0.0571226
0.0707436
-0.00867689
-0.00765684
-0.0066577
-0.00574232
-0.00484013
-0.00393253
-0.00302129
-0.00210461
-0.00117699
-0.00023198
0.00073727
0.00173825
0.00277928
0.00386983
0.00502094
0.00624584
0.00756065
0.00898524
0.0105443
0.0122697
0.0142029
0.016399
0.0189329
0.0219082
0.0254715
0.0298361
0.0353138
0.0423881
0.0517161
0.0645284
-0.0113084
-0.0101761
-0.00891745
-0.00782938
-0.00682424
-0.00584448
-0.0048793
-0.00392411
-0.00297142
-0.00201297
-0.00104057
-4.58372e-05
0.000980213
0.00204738
0.00316684
0.00435183
0.0056184
0.00698614
0.0084789
0.0101269
0.0119699
0.0140596
0.0164652
0.0192822
0.0226441
0.0267463
0.0318674
0.0384369
0.0469421
0.0585355
-0.0157399
-0.0146303
-0.0128314
-0.0113425
-0.0100411
-0.00880305
-0.00760183
-0.00643093
-0.00528154
-0.0041441
-0.00300929
-0.0018673
-0.000707414
0.000481985
0.00171354
0.00300205
0.00436502
0.00582352
0.00740168
0.00912826
0.0110412
0.0131882
0.0156303
0.0184505
0.0217608
0.0257261
0.0305655
0.0365926
0.0439954
0.0539008
0.0470602
0.0450078
0.0405661
0.0351013
0.0293338
0.0233627
0.017177
0.0108125
0.00433084
-0.00220351
-0.00872864
-0.0151861
-0.021522
-0.0276883
-0.0336438
-0.0393537
-0.0447894
-0.0499265
-0.0547479
-0.0592389
-0.0633846
-0.067182
-0.0706316
-0.0737324
-0.0764892
-0.078925
-0.0810891
-0.0829586
-0.0841175
-0.083773
0.0332445
0.032966
0.0302511
0.0261806
0.0217386
0.0171105
0.0122573
0.00718151
0.00192428
-0.00346127
-0.00891851
-0.0143884
-0.0198112
-0.0251285
-0.030286
-0.0352344
-0.0399314
-0.0443437
-0.0484438
-0.0522137
-0.055647
-0.0587381
-0.0614876
-0.0639038
-0.0660027
-0.0678253
-0.0694342
-0.0707282
-0.0710583
-0.0697472
0.0254715
0.0259035
0.023973
0.0206706
0.0170081
0.0131795
0.00913659
0.00486737
0.000400785
-0.00422033
-0.00894707
-0.0137251
-0.0184962
-0.0232008
-0.027781
-0.0321828
-0.0363593
-0.0402713
-0.043889
-0.0471922
-0.0501706
-0.0528223
-0.0551525
-0.057172
-0.0588998
-0.060382
-0.0616869
-0.0626957
-0.0626804
-0.060916
0.0201033
0.0208439
0.0193995
0.0166629
0.0135762
0.0103203
0.00684736
0.00314387
-0.000765615
-0.0048431
-0.00904374
-0.0133161
-0.0176032
-0.0218458
-0.0259845
-0.0299635
-0.0337333
-0.0372525
-0.0404897
-0.0434236
-0.0460435
-0.048348
-0.0503434
-0.0520413
-0.0534613
-0.0546493
-0.0556738
-0.0564188
-0.0561614
-0.0541852
0.0161886
0.0170178
0.0158673
0.0135435
0.010891
0.00806796
0.00502891
0.00176101
-0.00171439
-0.00536326
-0.00914416
-0.0130083
-0.0169006
-0.0207625
-0.0245347
-0.0281609
-0.0315909
-0.0347824
-0.0377035
-0.0403329
-0.0426602
-0.0446847
-0.0464135
-0.047859
-0.0490412
-0.0500038
-0.0508136
-0.0513647
-0.0509705
-0.0489215
0.0131889
0.0140051
0.0130478
0.0110404
0.00873014
0.0062477
0.00355175
0.000631148
-0.00249502
-0.00579589
-0.00923286
-0.0127595
-0.0163226
-0.0198648
-0.0233277
-0.0266554
-0.0297975
-0.0327121
-0.0353672
-0.0377419
-0.0398262
-0.0416198
-0.0431307
-0.0443716
-0.0453624
-0.046144
-0.0467804
-0.0471819
-0.0467041
-0.0446486
0.0107989
0.01156
0.0107341
0.00897727
0.00694174
0.00473651
0.00232134
-0.000312976
-0.00314908
-0.00615881
-0.00930604
-0.0125465
-0.0158287
-0.0190969
-0.0222937
-0.0253639
-0.0282579
-0.0309341
-0.033361
-0.0355183
-0.0373964
-0.0389957
-0.0403245
-0.0413962
-0.0422303
-0.0428649
-0.0433633
-0.0436488
-0.0431238
-0.0411
0.00883869
0.00951987
0.00878895
0.0072341
0.00542651
0.00345214
0.00127289
-0.00111923
-0.00370833
-0.00646859
-0.0093661
-0.0123585
-0.0153964
-0.0184252
-0.0213891
-0.0242338
-0.0269104
-0.0293783
-0.0316066
-0.0335755
-0.0352763
-0.0367097
-0.0378845
-0.0388147
-0.0395192
-0.0400342
-0.0404206
-0.0406145
-0.0400659
-0.0380964
0.00718304
0.00777544
0.00711963
0.00573202
0.00411544
0.00233722
0.000360595
-0.00182225
-0.00419668
-0.00673892
-0.00941711
-0.0121909
-0.0150123
-0.0178288
-0.0205857
-0.0232299
-0.0257137
-0.0279971
-0.0300502
-0.0318541
-0.0334004
-0.0346905
-0.0357336
-0.0365439
-0.03714
-0.0375567
-0.0378517
-0.0379729
-0.0374171
-0.0355142
0.00574724
0.00624693
0.0056527
0.0044133
0.00295916
0.0013505
-0.00044923
-0.00244804
-0.00463262
-0.0069811
-0.00946352
-0.0120413
-0.0146685
-0.0172939
-0.0198643
-0.0223281
-0.0246386
-0.0267568
-0.0286538
-0.0303113
-0.0317215
-0.0328865
-0.0338157
-0.0345236
-0.0350285
-0.0353632
-0.0355827
-0.0356469
-0.035094
-0.0332635
0.00447409
0.00488066
0.00433592
0.00323168
0.00192119
0.000460451
-0.00118237
-0.00301664
-0.0050307
-0.00720439
-0.00950955
-0.0119094
-0.0143597
-0.016811
-0.0192115
-0.0215111
-0.0236641
-0.0256327
-0.0273889
-0.0289152
-0.0302044
-0.0312589
-0.0320886
-0.0327081
-0.0331353
-0.0334011
-0.0335574
-0.0335761
-0.0330328
-0.0312775
0.00332017
0.00363871
0.00313647
0.00215224
0.000974395
-0.000356586
-0.00185875
-0.00354373
-0.0054025
-0.00741646
-0.00955904
-0.0117953
-0.0140827
-0.0163734
-0.0186174
-0.0207657
-0.0227742
-0.024606
-0.0262339
-0.0276414
-0.0288218
-0.0297779
-0.0305197
-0.0310619
-0.0314224
-0.0316297
-0.0317343
-0.0317157
-0.031186
-0.0295059
0.00225257
0.0024922
0.00202853
0.00114885
9.40561e-05
-0.00111885
-0.00249382
-0.00404185
-0.00575746
-0.00762367
-0.00961543
-0.0116995
-0.0138351
-0.0159763
-0.0180745
-0.0200823
-0.0219566
-0.0236618
-0.0251718
-0.0264706
-0.0275522
-0.0284196
-0.029083
-0.029557
-0.0298594
-0.0300173
-0.030078
-0.030029
-0.029516
-0.0279096
0.00124946
0.00141459
0.000989906
0.000204583
-0.000740201
-0.00184043
-0.00310016
-0.00452146
-0.00610349
-0.0078315
-0.00968182
-0.0116229
-0.0136158
-0.0156161
-0.0175771
-0.0194528
-0.0212014
-0.0227885
-0.0241888
-0.0253872
-0.026378
-0.0271647
-0.0277575
-0.028171
-0.0284227
-0.0285378
-0.0285614
-0.0284876
-0.0279925
-0.0264577
0.000291294
0.00038977
5.01787e-06
-0.000696428
-0.00154337
-0.00253366
-0.00368723
-0.00499083
-0.0064472
-0.00804467
-0.00976107
-0.0115664
-0.0134236
-0.0152901
-0.0171207
-0.0188709
-0.0205005
-0.0219761
-0.0232735
-0.024378
-0.0252848
-0.0259973
-0.0265257
-0.0268847
-0.0270915
-0.0271697
-0.0271619
-0.0270682
-0.0265922
-0.0251263
-0.000639403
-0.000596349
-0.000941785
-0.00156555
-0.0023236
-0.00321192
-0.00426311
-0.00545724
-0.00679443
-0.00826743
-0.00985584
-0.0115312
-0.0132582
-0.0149961
-0.0167014
-0.0183314
-0.0198471
-0.0212165
-0.0224161
-0.0234321
-0.02426
-0.0249035
-0.0253728
-0.0256824
-0.0258492
-0.0258954
-0.0258613
-0.0257515
-0.0252955
-0.0238965
-0.00155303
-0.00155761
-0.00186361
-0.00241431
-0.0030904
-0.00388594
-0.0048349
-0.00592699
-0.00715051
-0.00850371
-0.00996867
-0.0115184
-0.0131192
-0.0147324
-0.0163163
-0.0178298
-0.0192354
-0.0205023
-0.0216081
-0.0225397
-0.0232929
-0.0238716
-0.0242861
-0.0245505
-0.0246813
-0.0246998
-0.0246438
-0.0245218
-0.0240865
-0.0227534
-0.00245741
-0.00250558
-0.00277224
-0.00325317
-0.00385326
-0.00456312
-0.00541033
-0.00640495
-0.00752001
-0.00875714
-0.010102
-0.0115292
-0.0130067
-0.0144978
-0.0159627
-0.0173621
-0.01866
-0.0198271
-0.0208419
-0.021692
-0.0223738
-0.0228911
-0.0232542
-0.023477
-0.0235758
-0.0235705
-0.0234967
-0.023366
-0.0229524
-0.021686
-0.00335931
-0.00345066
-0.00367805
-0.00409231
-0.00461932
-0.00524798
-0.00599827
-0.00689573
-0.00790735
-0.0090313
-0.0102584
-0.011565
-0.0129209
-0.0142912
-0.0156383
-0.0169248
-0.0181164
-0.0191851
-0.0201106
-0.0208813
-0.0214939
-0.0219526
-0.0222673
-0.0224518
-0.022522
-0.0224967
-0.0224093
-0.0222736
-0.0218828
-0.020686
-0.00426624
-0.00440059
-0.00458891
-0.00493924
-0.00539533
-0.00594673
-0.00660615
-0.007404
-0.00831684
-0.00932983
-0.0104404
-0.0116273
-0.0128621
-0.0141118
-0.0153412
-0.0165147
-0.0176
-0.0185707
-0.0194076
-0.0201
-0.0206451
-0.0210472
-0.0213162
-0.0214656
-0.0215105
-0.021469
-0.0213723
-0.0212357
-0.0208696
-0.019748
-0.00518584
-0.00536278
-0.00551215
-0.0058004
-0.00618759
-0.00666535
-0.00723921
-0.00793527
-0.00875195
-0.00965615
-0.0106507
-0.0117179
-0.012831
-0.0139593
-0.0150696
-0.0161288
-0.0171067
-0.0179785
-0.0187265
-0.0193409
-0.0198196
-0.0201669
-0.0203926
-0.0205099
-0.0205333
-0.0204798
-0.0203782
-0.0202452
-0.0199066
-0.0188693
-0.0061261
-0.0063442
-0.00645423
-0.00668264
-0.00700362
-0.00740894
-0.0079001
-0.00849636
-0.00921616
-0.0100139
-0.0108922
-0.0118389
-0.0128288
-0.0138334
-0.0148221
-0.0157643
-0.0166323
-0.0174032
-0.018061
-0.018597
-0.0190097
-0.0193037
-0.0194887
-0.0195774
-0.0195834
-0.0195229
-0.0194219
-0.0192974
-0.0189896
-0.018049
-0.0070964
-0.00735181
-0.00742255
-0.00759183
-0.00784822
-0.00818229
-0.00859312
-0.00909323
-0.00971323
-0.0104071
-0.0111685
-0.0119927
-0.0128566
-0.013734
-0.0145971
-0.0154182
-0.0161724
-0.0168391
-0.0174044
-0.0178608
-0.0182077
-0.0184501
-0.0185972
-0.0186612
-0.0186549
-0.0185931
-0.0184995
-0.0183893
-0.0181167
-0.0172883
-0.00810992
-0.0083936
-0.00842313
-0.00853357
-0.00872632
-0.00898997
-0.00932357
-0.00973194
-0.0102472
-0.0108395
-0.0114831
-0.0121821
-0.0129162
-0.0136616
-0.0143935
-0.0150879
-0.0157227
-0.0162807
-0.01675
-0.017125
-0.0174062
-0.0175986
-0.0177113
-0.0177556
-0.0177432
-0.0176869
-0.0176078
-0.0175183
-0.0172873
-0.0165896
-0.00918403
-0.0094807
-0.00946577
-0.0095163
-0.00964394
-0.00983743
-0.0100953
-0.0104158
-0.0108239
-0.0113143
-0.0118395
-0.0124098
-0.0130094
-0.0136165
-0.0142103
-0.0147704
-0.0152791
-0.0157224
-0.0160917
-0.0163833
-0.0165989
-0.0167438
-0.0168265
-0.0168571
-0.0168459
-0.0168035
-0.0167474
-0.0166869
-0.0165042
-0.0159562
-0.0103346