/*--------------------------------*- C++ -*----------------------------------*\
  =========                 |
  \\      /  F ield         | OpenFOAM: The Open Source CFD Toolbox
   \\    /   O peration     | Website:  https://openfoam.org
    \\  /    A nd           | Version:  12
     \\/     M anipulation  |
\*---------------------------------------------------------------------------*/
FoamFile
{
    format      ascii;
    class       volScalarField;
    location    "100";
    object      pPrime2Mean;
}
// * * * * * * * * * * * * * * * * * * * * * * * * * * * * * * * * * * * * * //

dimensions      [0 4 -4 0 0 0 0];

internalField   nonuniform List<scalar> 
6750
(
0.0123471
0.0123274
0.0123013
0.0122782
0.012261
0.0123719
0.0123462
0.0123057
0.0122574
0.0122076
0.0124505
0.0124186
0.0123656
0.0122974
0.0122243
0.0125812
0.0125471
0.01249
0.0124151
0.0123351
0.0127575
0.0127264
0.012674
0.0126046
0.0125303
0.012968
0.0129444
0.0129041
0.0128495
0.0127908
0.0131981
0.0131853
0.0131627
0.0131298
0.0130941
0.0134323
0.0134326
0.0134311
0.0134246
0.013417
0.0136563
0.0136706
0.0136919
0.0137138
0.013737
0.013858
0.0138861
0.0139298
0.01398
0.014034
0.0140284
0.0140691
0.0141332
0.0142094
0.0142921
0.0141617
0.0142129
0.0142942
0.0143923
0.0144994
0.0142551
0.0143143
0.0144086
0.0145234
0.0146493
0.0143086
0.0143731
0.0144758
0.0146014
0.0147397
0.0143246
0.0143914
0.0144978
0.0146284
0.0147724
0.0143066
0.014373
0.0144789
0.0146089
0.0147523
0.0142545
0.0143178
0.014419
0.0145428
0.0146791
0.0141651
0.0142225
0.0143143
0.014426
0.0145486
0.0140367
0.0140855
0.0141633
0.0142573
0.0143598
0.0138698
0.0139076
0.0139675
0.0140386
0.0141157
0.0136677
0.0136927
0.0137315
0.013776
0.0138238
0.0134367
0.0134476
0.0134638
0.0134797
0.0134962
0.0131862
0.0131831
0.0131764
0.0131638
0.0131494
0.0129286
0.0129125
0.0128847
0.0128459
0.0128036
0.0126785
0.0126516
0.0126065
0.0125462
0.0124812
0.0124515
0.0124173
0.0123603
0.0122856
0.0122054
0.0122622
0.0122253
0.0121638
0.012084
0.0119986
0.0121223
0.0120877
0.0120307
0.0119578
0.0118798
0.0120381
0.01201
0.0119658
0.0119131
0.0118587
0.0120111
0.0119894
0.0119603
0.0119337
0.0119135
0.0122208
0.0121153
0.0119137
0.0116357
0.011286
0.0108676
0.0103821
0.00983132
0.00922039
0.00855707
0.00785122
0.00711882
0.00637641
0.00564246
0.00493523
0.00427099
0.0036626
0.00311859
0.00264273
0.00223439
0.00189007
0.00160472
0.00137052
0.00118023
0.00102708
0.000904792
0.000808282
0.000733141
0.000676075
0.000641359
0.0122162
0.0120439
0.0117947
0.0114784
0.0110968
0.0106521
0.0101474
0.00958761
0.00897942
0.00833046
0.00765029
0.00695371
0.0062541
0.00556638
0.00490491
0.00428229
0.00370857
0.00319054
0.00273177
0.00233292
0.00199178
0.00170286
0.00146236
0.00126404
0.00110209
0.000971404
0.000867252
0.000785077
0.000720353
0.000672449
0.0121673
0.011949
0.0116632
0.0113183
0.0109142
0.0104532
0.00993896
0.00937692
0.00877468
0.00813949
0.00748221
0.00681574
0.00615153
0.00550188
0.00487818
0.00429021
0.00374574
0.00325024
0.00280676
0.00241604
0.00207684
0.00178697
0.00154195
0.00133735
0.00116837
0.00103034
0.00091887
0.000829432
0.000758013
0.000703359
0.0120973
0.0118492
0.0115362
0.0111704
0.0107528
0.0102842
0.00976785
0.0092093
0.00861607
0.00799491
0.00735755
0.00671487
0.00607725
0.00545532
0.00485872
0.00429567
0.00377264
0.00329429
0.00286332
0.00248062
0.00214548
0.0018561
0.0016092
0.00140102
0.00122738
0.00108391
0.000966098
0.000869672
0.000791132
0.000733539
0.0120208
0.0117508
0.0114168
0.0110351
0.0106089
0.0101375
0.00962359
0.00907214
0.00848979
0.00788302
0.00726332
0.00664003
0.00602284
0.00542141
0.00484448
0.0042995
0.0037924
0.00332742
0.00290705
0.00253216
0.00220214
0.00191523
0.00166869
0.0014591
0.00128261
0.00113502
0.00101189
0.000908749
0.00082418
0.00076434
0.0119494
0.0116623
0.0113125
0.0109188
0.0104864
0.010015
0.0095057
0.00896287
0.0083917
0.00779859
0.00719393
0.00658605
0.00598417
0.00539746
0.00483433
0.00430206
0.00380647
0.00335169
0.00294011
0.00257245
0.00224797
0.00196478
0.00172013
0.00151066
0.00133263
0.00118203
0.00105442
0.000945688
0.000856071
0.000794756
0.0118911
0.0115902
0.0112281
0.0108257
0.0103889
0.00991843
0.00941466
0.00888048
0.00831961
0.00773858
0.00714608
0.00654983
0.00595876
0.00538189
0.00482771
0.0043037
0.00381588
0.00336849
0.00296389
0.0026026
0.00228361
0.00200471
0.00176286
0.00155451
0.00137591
0.00122323
0.00109217
0.000978999
0.000885267
0.000823107
0.0118524
0.01154
0.0111679
0.0107585
0.0103192
0.00984978
0.00935125
0.00882468
0.00827254
0.00770129
0.00711779
0.00652946
0.00594507
0.00537373
0.00482427
0.00430466
0.00382132
0.00337873
0.00297927
0.00262329
0.00230938
0.00203488
0.0017963
0.00158978
0.0014115
0.00125742
0.00112386
0.00100747
0.000910463
0.000847801
0.0118392
0.0115168
0.0111357
0.01072
0.0102787
0.00981042
0.00931615
0.00879557
0.0082502
0.00768582
0.00710793
0.00652378
0.0059421
0.00537229
0.00482375
0.00430506
0.00382319
0.00338296
0.00298681
0.00263489
0.00232539
0.00205509
0.00182
0.00161584
0.00143864
0.00128418
0.0011491
0.00103021
0.000930565
0.000867473
0.0118572
0.0115254
0.0111353
0.0107132
0.0102696
0.00980222
0.00931054
0.00879372
0.00825266
0.00769187
0.00711602
0.00653221
0.00594931
0.0053772
0.00482598
0.00430496
0.00382173
0.0033815
0.00298679
0.00263757
0.0023316
0.00206513
0.00183358
0.00163223
0.00145663
0.00130278
0.00116703
0.00104624
0.000944453
0.000880876
0.0119124
0.0115711
0.0111711
0.0107413
0.010294
0.00982648
0.00933573
0.00882011
0.00828047
0.00771972
0.0071421
0.00655465
0.00596655
0.00538832
0.00483088
0.00430437
0.00381703
0.00337446
0.0029793
0.00263133
0.00232791
0.00206475
0.00183667
0.00163843
0.00146513
0.00131263
0.00117681
0.00105466
0.000951118
0.000886922
0.0120115
0.0116594
0.0112478
0.0108083
0.0103554
0.00988566
0.0093934
0.0088763
0.00833469
0.00777012
0.00718665
0.00659139
0.00599396
0.0054057
0.00483847
0.00430329
0.00380907
0.00336181
0.00296426
0.00261605
0.00231414
0.0020537
0.00182898
0.00163411
0.0014636
0.00131308
0.00117761
0.00105452
0.000949658
0.000884735
0.0121621
0.0117972
0.0113716
0.0109194
0.0104586
0.00998313
0.00948626
0.0089645
0.008417
0.00784439
0.00725063
0.00664308
0.00603195
0.00542956
0.00484883
0.0043017
0.00379776
0.0033434
0.0029415
0.00259152
0.00229005
0.00203173
0.00181016
0.0016188
0.00145138
0.00130297
0.00116848
0.00104498
0.000939347
0.000873674
0.0123735
0.0119927
0.0115497
0.011081
0.0106083
0.0101235
0.00961825
0.00908779
0.00852989
0.00794447
0.00733548
0.00671068
0.00608113
0.00546026
0.00486213
0.0042996
0.00378295
0.00331898
0.00291073
0.00255748
0.00225541
0.00199858
0.00177991
0.00159197
0.00142793
0.00128191
0.00114878
0.00102549
0.000919775
0.000853447
0.012657
0.0122563
0.0117915
0.0113015
0.0108123
0.0103132
0.00979464
0.00925055
0.00867682
0.00807301
0.00744312
0.00679552
0.00614236
0.0054983
0.00487858
0.00429698
0.00376446
0.00328828
0.0028716
0.00251357
0.00220988
0.00195393
0.0017378
0.00155327
0.00139264
0.00124932
0.00111812
0.000995801
0.000890944
0.000824297
0.0130269
0.0126013
0.0121098
0.0115925
0.0110808
0.0105613
0.0100232
0.00945891
0.00886252
0.00823345
0.00757597
0.00689924
0.00621669
0.0055443
0.00489842
0.00429381
0.00374211
0.00325103
0.0028238
0.00245939
0.00215302
0.00189724
0.00168327
0.00150208
0.00134501
0.00120487
0.0010764
0.000956156
0.000853455
0.000787285
0.0135019
0.0130456
0.0125216
0.0119694
0.0114278
0.0108799
0.0103145
0.00972099
0.00909313
0.00843024
0.00773706
0.00702384
0.00630538
0.00559892
0.0049219
0.00429002
0.00371566
0.00320692
0.00276702
0.0023946
0.00208431
0.0018279
0.00161565
0.00143769
0.00128468
0.00114859
0.00102408
0.000907558
0.000808931
0.000744743
0.0141074
0.0136134
0.0130497
0.0124528
0.0118713
0.0112851
0.010681
0.0100469
0.00937636
0.0086689
0.00793019
0.00717182
0.00640989
0.00566283
0.00494917
0.00428549
0.00368487
0.00315563
0.00270088
0.00231876
0.00200328
0.00174542
0.00153459
0.00136001
0.0012117
0.00108112
0.000962552
0.000852313
0.000760706
0.0007011
0.0148779
0.0143372
0.0137243
0.0130697
0.0124352
0.0117967
0.0111388
0.0104492
0.00972166
0.00895626
0.00816005
0.00734606
0.00653174
0.00573666
0.00498033
0.00428012
0.00364951
0.00309685
0.00262496
0.00223143
0.00190958
0.00164966
0.00144026
0.00126968
0.00112736
0.00100448
0.00089507
0.000795177
0.000715062
0.000664176
0.0158615
0.0152613
0.0145859
0.0138552
0.0131498
0.0124393
0.0117081
0.0109436
0.0101406
0.00930049
0.00843199
0.00754972
0.0066725
0.00582099
0.0050155
0.00427381
0.00360941
0.00303037
0.00253901
0.00213239
0.00180322
0.0015411
0.00133385
0.00116897
0.0010353
0.000923689
0.000828401
0.000745367
0.00068354
0.00064772
0.0171255
0.0164471
0.0156902
0.0148583
0.0140548
0.0132455
0.0124142
0.0115494
0.0106472
0.00971119
0.00875202
0.00778621
0.00683387
0.00591653
0.00505482
0.00426645
0.00356438
0.00295601
0.00244302
0.0020219
0.00168493
0.00142123
0.00121805
0.00106227
0.000942082
0.000848237
0.000775118
0.000719702
0.000686887
0.000676216
0.0187644
0.017979
0.0171141
0.0161437
0.0152045
0.0142589
0.013291
0.0122914
0.0112588
0.0101996
0.00912704
0.0080594
0.00701782
0.00602409
0.0050985
0.00425789
0.00351419
0.00287371
0.00233729
0.00190089
0.00155652
0.00129318
0.00109796
0.000957452
0.00085947
0.000794807
0.000758175
0.000747975
0.000761398
0.000792918
0.0209058
0.0199724
0.0189628
0.0177999
0.0166717
0.0155372
0.0143813
0.0132
0.0119959
0.010779
0.00956512
0.00837387
0.00722665
0.00614459
0.00514663
0.00424791
0.00345862
0.0027836
0.00222265
0.00177123
0.00142139
0.00116256
0.000982432
0.000868069
0.000807492
0.000791794
0.000815984
0.000880699
0.000967347
0.00106945
0.0237108
0.0225772
0.0213714
0.0199428
0.0185513
0.0171527
0.0157382
0.0143124
0.0128835
0.0114652
0.0100757
0.00873479
0.00746279
0.00627878
0.00519908
0.00423604
0.00339734
0.00268595
0.00210048
0.00163606
0.00128523
0.00103873
0.00088614
0.000816473
0.000819254
0.000886045
0.00101191
0.0011988
0.00139836
0.00161181
0.0273664
0.0259676
0.0245056
0.022717
0.0209605
0.0191927
0.0174247
0.015672
0.0139499
0.0122761
0.0106691
0.00914744
0.00772831
0.00642685
0.00525504
0.00422112
0.00332941
0.00258057
0.00197213
0.00149933
0.00115605
0.000935666
0.000831591
0.000837167
0.000945508
0.00114926
0.00144054
0.00181857
0.0021837
0.00255737
0.0320667
0.030323
0.0285292
0.0262603
0.0240034
0.0217369
0.019498
0.0173185
0.0152219
0.0132286
0.0113555
0.00961712
0.00802517
0.00658845
0.00531259
0.00420023
0.00325146
0.00246444
0.00183606
0.00136275
0.0010413
0.000869853
0.000848194
0.00097692
0.00125509
0.00167614
0.00222431
0.00288461
0.00347822
0.0040681
0.0379159
0.0357248
0.0334857
0.0306016
0.0277066
0.0248152
0.021993
0.0192906
0.0167391
0.0143596
0.0121663
0.010168
0.00836938
0.00677133
0.00537196
0.00416754
0.00315364
0.00232628
0.00168269
0.00122207
0.000946289
0.000860455
0.000972736
0.00129229
0.00182444
0.00256159
0.00347475
0.00452213
0.0054341
0.00630892
0.0453205
0.04238
0.0394155
0.0358093
0.0322092
0.0286374
0.025171
0.0218713
0.018778
0.0159184
0.0133098
0.0109606
0.00887215
0.00704049
0.00545844
0.00411774
0.00301113
0.0021339
0.00148498
0.00106722
0.000887242
0.000954606
0.00128005
0.00187215
0.00273242
0.00384747
0.0051815
0.00668807
0.00810661
0.00948843
0.0568089
0.0530171
0.0491803
0.0447313
0.0402443
0.0357138
0.0312445
0.0269372
0.0228709
0.0191074
0.0156875
0.0126325
0.00994845
0.00763063
0.0056693
0.00405418
0.00277822
0.00183941
0.00124208
0.000995266
0.0011089
0.00158968
0.00243508
0.00362728
0.00512956
0.00688091
0.0088033
0.0108497
0.0126507
0.0144582
0.092575
0.0857743
0.0780449
0.0701822
0.0623387
0.0545136
0.0468809
0.0396078
0.0328313
0.026658
0.0211565
0.0163569
0.0122596
0.00884788
0.00609942
0.00399708
0.00253617
0.00172843
0.00159892
0.00218025
0.00350322
0.00558321
0.00840789
0.0119283
0.0160562
0.0206643
0.0255938
0.0308043
0.0361596
0.0410164
0.0122344
0.0121739
0.0121178
0.012067
0.0120237
0.0119908
0.0119724
0.0119736
0.0119997
0.0120563
0.0121496
0.0122868
0.0124762
0.0127278
0.0130539
0.0134699
0.0139957
0.0146585
0.0154959
0.0165611
0.0179292
0.0197062
0.0220352
0.0250923
0.0290787
0.0342133
0.0407314
0.0493377
0.0623573
0.100185
0.0121641
0.0121211
0.0120847
0.0120565
0.0120422
0.012044
0.012065
0.0121089
0.0121803
0.0122846
0.0124279
0.012618
0.0128638
0.0131764
0.0135696
0.0140605
0.014672
0.0154346
0.0163905
0.0175984
0.0191406
0.0211318
0.0237247
0.0271055
0.0314846
0.0371163
0.0444108
0.0542153
0.0683602
0.108358
0.0121848
0.0121798
0.0121806
0.0121881
0.0122084
0.0122453
0.0123027
0.0123852
0.0124978
0.0126462
0.0128372
0.0130787
0.0133806
0.0137546
0.0142158
0.0147832
0.0154821
0.0163465
0.0174228
0.0187747
0.0204911
0.0226944
0.0255458
0.0292385
0.0339879
0.0400821
0.0480888
0.0589891
0.0739273
0.117427
0.0123094
0.0123429
0.0123818
0.0124266
0.0124846
0.01256
0.0126574
0.012782
0.012939
0.013135
0.013377
0.0136739
0.014036
0.0144762
0.0150106
0.0156599
0.0164516
0.0174222
0.0186211
0.020115
0.0219958
0.0243887
0.0274558
0.0313851
0.036381
0.0427604
0.0513018
0.0633244
0.078812
0.127165
0.0125228
0.0125912
0.0126665
0.0127485
0.0128448
0.0129606
0.0131009
0.013271
0.0134769
0.0137253
0.014024
0.0143823
0.0148115
0.0153253
0.015941
0.0166811
0.0175749
0.0186612
0.0199911
0.0216335
0.0236807
0.0262574
0.0295209
0.0336459
0.0388165
0.045374
0.0543549
0.0676075
0.083237
0.137464
0.0128042
0.0129033
0.0130124
0.0131305
0.0132653
0.0134221
0.0136067
0.0138246
0.0140823
0.0143868
0.0147464
0.0151709
0.0156722
0.0162651
0.0169679
0.0178044
0.0188055
0.0200116
0.0214748
0.0232639
0.02547
0.0282134
0.0316423
0.0359109
0.0411759
0.0478033
0.0571493
0.0718893
0.0872306
0.148706
0.0131303
0.0132561
0.0133959
0.0135485
0.013721
0.0139188
0.014148
0.0144146
0.0147253
0.0150875
0.0155099
0.016003
0.0165789
0.0172533
0.0180454
0.01898
0.0200891
0.0214137
0.0230061
0.0249337
0.0272845
0.0301721
0.0337321
0.0380931
0.0433779
0.0499754
0.0596216
0.0762593
0.0909027
0.161433
0.0134773
0.013626
0.0137932
0.013978
0.0141864
0.0144241
0.014697
0.0150115
0.0153746
0.015794
0.0162788
0.0168397
0.0174895
0.0182442
0.0191237
0.0201536
0.0213663
0.0228028
0.0245147
0.0265673
0.0290444
0.0320521
0.0357117
0.0401218
0.0453645
0.0518463
0.0617219
0.0808024
0.0944048
0.176222
0.0138215
0.0139899
0.0141812
0.0143951
0.014637
0.0149121
0.0152265
0.0155866
0.0159995
0.0164733
0.0170173
0.0176425
0.018362
0.0191921
0.0201532
0.0212712
0.0225785
0.0241155
0.0259328
0.0280933
0.0306764
0.0337813
0.0375148
0.0419422
0.0470972
0.0533963
0.0634134
0.0855781
0.0979209
0.193542
0.0141419
0.0143269
0.014539
0.0147785
0.0150504
0.0153595
0.0157116
0.0161133
0.0165717
0.0170949
0.0176925
0.0183756
0.0191577
0.0200551
0.0210886
0.0222839
0.023673
0.0252958
0.0272016
0.029451
0.0321198
0.0353015
0.0390902
0.0435153
0.0485542
0.0546281
0.064683
0.0905977
0.101641
0.213518
0.014421
0.0146197
0.0148491
0.0151105
0.0154081
0.0157466
0.0161315
0.0165693
0.017067
0.0176329
0.0182765
0.0190091
0.0198444
0.0207987
0.0218928
0.0231519
0.024608
0.0263001
0.0282763
0.0305953
0.0333304
0.0365713
0.0404023
0.0448163
0.0497271
0.0555611
0.0655476
0.0957966
0.105701
0.235667
0.0146462
0.0148557
0.0150989
0.015378
0.0156965
0.0160589
0.0164707
0.0169378
0.0174674
0.0180677
0.0187484
0.0195207
0.0203983
0.0213976
0.0225391
0.0238478
0.0253552
0.0270997
0.0291286
0.031499
0.0342824
0.037567
0.041431
0.0458326
0.0506173
0.056224
0.0660541
0.101
0.110098
0.258619
0.0148097
0.0150272
0.0152808
0.015573
0.0159072
0.0162876
0.0167194
0.0172084
0.0177617
0.0183876
0.0190956
0.0198972
0.0208057
0.0218375
0.0230129
0.0243569
0.0259005
0.0276816
0.0297467
0.0321518
0.0349676
0.0382824
0.0421715
0.046563
0.0512347
0.0566481
0.0662725
0.105911
0.114619
0.280194
0.0149091
0.0151317
0.015392
0.0156929
0.0160374
0.0164295
0.0168742
0.0173774
0.0179461
0.0185885
0.0193141
0.0201343
0.0210624
0.0221148
0.0233114
0.0246773
0.0262431
0.0280467
0.0301336
0.0325593
0.0353939
0.0387269
0.0426334
0.0470181
0.0516006
0.0568699
0.0662839
0.110035
0.11873
0.297692
0.014946
0.0151711
0.0154347
0.0157398
0.0160892
0.0164869
0.0169377
0.0174476
0.0180235
0.0186737
0.0194076
0.0202364
0.0211736
0.0222353
0.0234417
0.0248176
0.0263939
0.0282078
0.0303048
0.0327399
0.0355833
0.0389252
0.0428416
0.0472251
0.051759
0.0569518
0.0662055
0.112405
0.121325
0.307662
0.0149255
0.0151507
0.0154144
0.0157196
0.016069
0.0164665
0.0169172
0.0174268
0.0180025
0.0186524
0.0193859
0.0202143
0.0211508
0.022212
0.0234179
0.0247937
0.02637
0.0281842
0.0302817
0.0327177
0.0355623
0.038906
0.0428248
0.0472105
0.0517461
0.0569413
0.0661824
0.112362
0.121294
0.308043
0.0148475
0.0150704
0.0153311
0.0156322
0.0159767
0.0163687
0.016813
0.0173157
0.0178837
0.0185253
0.0192498
0.0200685
0.020995
0.0220458
0.0232413
0.0246066
0.0261727
0.0279772
0.0300658
0.0324941
0.0353326
0.038671
0.0425844
0.0469756
0.0515633
0.0568393
0.0662191
0.109921
0.118649
0.298786
0.0147074
0.0149254
0.0151797
0.0154725
0.0158071
0.0161875
0.016619
0.0171074
0.0176599
0.0182845
0.0189908
0.0197902
0.0206963
0.0217259
0.0228996
0.0242429
0.0257869
0.0275699
0.029638
0.0320478
0.0348702
0.0381939
0.0420938
0.0464954
0.0511762
0.0566003
0.0661799
0.105764
0.114517
0.281861
0.0145045
0.0147148
0.0149591
0.0152393
0.0155588
0.0159218
0.0163336
0.0168004
0.0173291
0.017928
0.0186066
0.0193763
0.0202511
0.0212478
0.0223872
0.0236952
0.0252034
0.0269506
0.028984
0.0313611
0.0341538
0.0374503
0.041328
0.0457425
0.0505409
0.0561637
0.0659537
0.100865
0.110007
0.260698
0.0142422
0.0144421
0.014673
0.0149362
0.0152354
0.0155751
0.0159608
0.0163987
0.0168958
0.0174603
0.0181019
0.0188318
0.0196641
0.0206157
0.0217077
0.0229662
0.0244235
0.026119
0.028101
0.0304286
0.0331751
0.0364299
0.040276
0.0447052
0.0496355
0.0554943
0.0654622
0.0957134
0.105646
0.238017
0.013929
0.0141156
0.0143297
0.0145718
0.014846
0.0151572
0.0155109
0.0159134
0.0163717
0.0168941
0.0174899
0.0181705
0.0189497
0.0198446
0.0208763
0.0220711
0.0234617
0.0250886
0.0270011
0.0292602
0.0319415
0.0351378
0.0389418
0.0433841
0.04845
0.0545621
0.0646349
0.090594
0.101643
0.216016
0.0135782
0.0137489
0.0139429
0.0141601
0.0144051
0.0146832
0.015
0.0153618
0.0157755
0.0162492
0.0167921
0.0174153
0.0181324
0.0189602
0.0199198
0.0210376
0.0223467
0.023888
0.0257123
0.0278827
0.0304782
0.0335969
0.0373451
0.041792
0.0469834
0.0533396
0.0634208
0.0856679
0.0979961
0.196092
0.0132076
0.0133595
0.0135303
0.0137192
0.0139317
0.0141732
0.0144495
0.0147668
0.0151317
0.015552
0.0160367
0.0165964
0.0172445
0.0179973
0.0188755
0.0199053
0.0211198
0.0225604
0.0242789
0.0263406
0.0288286
0.0318482
0.0355214
0.0399542
0.0452449
0.0518078
0.0617961
0.0809875
0.0945688
0.178763
0.0128384
0.0129685
0.013113
0.0132709
0.0134483
0.0136509
0.0138845
0.0141548
0.0144685
0.0148329
0.0152564
0.0157493
0.0163243
0.0169971
0.0177878
0.0187221
0.0198327
0.0211608
0.0227588
0.0246939
0.0270533
0.0299503
0.033523
0.0379108
0.043257
0.0499626
0.059766
0.0765334
0.0911705
0.163935
0.0124941
0.0125988
0.0127139
0.0128384
0.0129791
0.0131416
0.0133314
0.0135542
0.013816
0.0141237
0.0144855
0.0149108
0.0154118
0.0160032
0.0167044
0.0175402
0.0185421
0.0197508
0.0212183
0.0230129
0.025225
0.0279755
0.031417
0.0357178
0.0410588
0.0478215
0.0573611
0.0722437
0.0876185
0.151172
0.0121984
0.0122738
0.0123563
0.0124456
0.0125487
0.0126707
0.0128169
0.0129925
0.0132032
0.0134556
0.0137572
0.0141169
0.014546
0.0150584
0.0156723
0.016411
0.0173049
0.018393
0.019726
0.021372
0.0234233
0.0260058
0.0292833
0.0334471
0.0387083
0.0454259
0.0546274
0.0680349
0.083763
0.139919
0.0119744
0.0120163
0.0120633
0.0121159
0.0121809
0.0122627
0.012366
0.0124959
0.0126577
0.0128575
0.0131024
0.0134007
0.0137626
0.0142013
0.0147336
0.0153813
0.0161727
0.0171447
0.0183459
0.0198425
0.0217268
0.0241263
0.027211
0.0311872
0.0362875
0.0428467
0.0516271
0.0638212
0.0794936
0.129652
0.0118426
0.0118471
0.0118568
0.0118719
0.0118987
0.0119411
0.0120033
0.0120899
0.012206
0.0123571
0.0125498
0.012792
0.0130931
0.0134655
0.0139246
0.0144905
0.0151894
0.0160553
0.0171341
0.0184894
0.020211
0.0224248
0.0253008
0.0290509
0.033917
0.0402044
0.0484607
0.0595558
0.0747804
0.119991
0.0118181
0.0117857
0.0117579
0.0117363
0.0117266
0.0117318
0.0117552
0.0118008
0.0118731
0.0119777
0.0121207
0.0123097
0.012554
0.0128648
0.0132564
0.0137467
0.014359
0.0151242
0.0160844
0.0172985
0.0188507
0.0208592
0.0234858
0.0269343
0.031437
0.0372632
0.0448062
0.0548297
0.069348
0.110989
0.0118913
0.0118402
0.0117897
0.0117423
0.0117007
0.0116679
0.0116486
0.0116479
0.0116714
0.0117249
0.011815
0.011949
0.0121356
0.0123851
0.0127102
0.0131267
0.0136546
0.0143215
0.0151658
0.0162416
0.0176257
0.0194278
0.0217989
0.0249313
0.0290422
0.0343635
0.041123
0.0499734
0.0634305
0.102864
0.0952235
0.088305
0.0803487
0.072196
0.0640514
0.0559404
0.048048
0.0405483
0.0335809
0.0272527
0.0216302
0.01674
0.012579
0.00912674
0.00635764
0.00425208
0.00280358
0.00202299
0.00193474
0.00257064
0.0039603
0.00611658
0.00902277
0.0126232
0.0168209
0.0214787
0.0264288
0.0316262
0.0369302
0.0417282
0.0579304
0.0541678
0.0502858
0.0457139
0.0410824
0.0364113
0.0318161
0.0274034
0.0232536
0.0194269
0.0159612
0.0128746
0.01017
0.00784016
0.00587329
0.00425735
0.00298376
0.00204881
0.00145544
0.00121147
0.00132571
0.00180394
0.00264286
0.00382392
0.00530969
0.007038
0.00893132
0.0109457
0.0126946
0.0144765
0.0459856
0.0430941
0.040136
0.036481
0.0328048
0.0291504
0.0256048
0.0222361
0.0190866
0.0161838
0.0135436
0.0111723
0.00906919
0.0072282
0.00564041
0.0042958
0.00318528
0.00230206
0.00164283
0.00120827
0.00100322
0.00103632
0.00131849
0.00185973
0.00266411
0.00372164
0.00500142
0.00646352
0.0078409
0.00921116
0.0383109
0.0361475
0.0339124
0.0309986
0.0280621
0.0251294
0.0222695
0.0195357
0.0169592
0.0145609
0.0123543
0.0103471
0.00854286
0.00694171
0.0055407
0.00433495
0.00331858
0.00248576
0.00183156
0.00135317
0.00105122
0.000931044
0.0010028
0.00127906
0.00176892
0.00246782
0.00334861
0.00437089
0.00526991
0.00614523
0.0322191
0.0304864
0.0286883
0.0264043
0.0241362
0.0218654
0.0196273
0.0174511
0.0153585
0.0133688
0.0114989
0.00976328
0.00817378
0.00673926
0.00546517
0.00435356
0.0034035
0.00261163
0.00197312
0.00148288
0.00113718
0.00093525
0.00087985
0.000975811
0.00122626
0.00162707
0.00216224
0.00281416
0.0034062
0.0039957
0.0273366
0.0259416
0.0244743
0.0226831
0.020935
0.0191874
0.0174449
0.0157185
0.0140201
0.0123658
0.010774
0.00926342
0.00785236
0.00655661
0.00538847
0.00435597
0.00346274
0.00270837
0.00208929
0.00160003
0.00123473
0.000988374
0.000857252
0.000838248
0.000927518
0.00111929
0.00140525
0.00178191
0.00214946
0.00252382
0.0235581
0.0224287
0.0212221
0.019801
0.0184287
0.0170608
0.015683
0.014295
0.0129009
0.0115121
0.0101457
0.00882206
0.00756246
0.00638694
0.00531237
0.00435115
0.00351055
0.00279295
0.00219658
0.00171671
0.00134677
0.00107927
0.000906131
0.000818677
0.000808117
0.00086679
0.000989528
0.00117719
0.00138162
0.00160019
0.0206755
0.0197497
0.0187446
0.0175953
0.0164906
0.01539
0.0142739
0.0131345
0.0119703
0.0107883
0.00960278
0.0084334
0.00730223
0.00623132
0.00524021
0.00434416
0.0035532
0.00287207
0.00230078
0.00183559
0.00146987
0.00119478
0.000999728
0.000873051
0.000803396
0.000781948
0.000803542
0.000868604
0.000959724
0.00106812
0.0184872
0.0177108
0.016854
0.0158997
0.0149851
0.0140732
0.013145
0.0121878
0.0111968
0.0101752
0.00913453
0.00809226
0.00706991
0.00609001
0.00517333
0.00433687
0.00359254
0.00294689
0.00240143
0.00195336
0.00159626
0.00132072
0.00111508
0.000966535
0.000862857
0.000794391
0.000755499
0.000744489
0.000759978
0.000795581
0.0168177
0.0161479
0.0154007
0.0145867
0.0138074
0.0130304
0.0122372
0.0114139
0.0105534
0.00965646
0.00873143
0.00779372
0.00686341
0.0059625
0.00511201
0.00432972
0.00362867
0.0030167
0.00249646
0.00206593
0.00171907
0.00144651
0.00123643
0.00107591
0.000952722
0.000856801
0.000781879
0.000724536
0.000691125
0.000681371
0.0155327
0.0149398
0.0142743
0.0135613
0.0128796
0.0121998
0.0115049
0.0107806
0.0100188
0.00921829
0.00838542
0.00753341
0.00668067
0.00584804
0.00505608
0.00432261
0.00366121
0.00308048
0.00258389
0.00217012
0.0018336
0.00156536
0.00135397
0.00118692
0.00105235
0.000940072
0.000843365
0.000757697
0.000693191
0.000655592
0.0145338
0.0139986
0.0133953
0.0127577
0.0121463
0.011537
0.0109138
0.0102628
0.00957541
0.00884942
0.00808959
0.00730749
0.0065198
0.00574588
0.00500527
0.00431535
0.00368973
0.00313741
0.00266237
0.0022639
0.00193699
0.00167326
0.00146195
0.00129119
0.00114962
0.00102721
0.000916688
0.000813767
0.000729587
0.000674998
0.0137524
0.0132613
0.0127063
0.0121256
0.0115662
0.0110086
0.0104378
0.00984084
0.00920918
0.00854026
0.00783801
0.00711265
0.00637918
0.00565534
0.00495934
0.00430777
0.00371398
0.00318699
0.00273116
0.00234622
0.00202778
0.00176812
0.00155722
0.00138402
0.00123763
0.00110822
0.000988958
0.000875636
0.000779276
0.000714822
0.0131396
0.0126834
0.012167
0.0116302
0.01111
0.0105899
0.0100569
0.00949896
0.00890829
0.00828266
0.00762554
0.00694598
0.00625738
0.00557582
0.0049181
0.00429985
0.00373389
0.00322912
0.00279005
0.00241679
0.00210549
0.00184907
0.00163823
0.00146277
0.00131242
0.00117805
0.00105329
0.000933983
0.000830597
0.000761158
0.0126603
0.0122325
0.0117478
0.0112453
0.0107544
0.0102611
0.00975444
0.00922394
0.00866291
0.00806976
0.00744776
0.00680489
0.00615306
0.00550675
0.00488142
0.00429166
0.00374966
0.00326404
0.00283933
0.00247589
0.00217032
0.0019161
0.0017047
0.00152674
0.00137275
0.00123469
0.00110643
0.000984067
0.00087729
0.000806219
0.0122888
0.0118847
0.0114261
0.0109502
0.0104807
0.0100062
0.00951685
0.00900489
0.00846491
0.00789587
0.00730091
0.00668706
0.0060649
0.00544755
0.00484917
0.00428338
0.00376165
0.00329223
0.00287953
0.0025241
0.00222283
0.00196975
0.00175705
0.00157619
0.00141882
0.00127781
0.00114735
0.00102388
0.000916167
0.000845645
0.0120061
0.0116214
0.0111839
0.0107283
0.0102739
0.00981163
0.00933332
0.00883321
0.00830776
0.00775629
0.00718168
0.00659029
0.00599163
0.0053976
0.00482126
0.00427524
0.0037703
0.00331426
0.00291134
0.0025621
0.00226376
0.00201083
0.0017962
0.00161222
0.00145162
0.00130815
0.00117636
0.00105298
0.000945828
0.00087696
0.0117973
0.0114284
0.0110074
0.0105667
0.0101223
0.00966741
0.00919564
0.00870254
0.00818648
0.00764713
0.00708722
0.00651261
0.00593199
0.0053563
0.00479754
0.00426744
0.00377606
0.00333071
0.00293539
0.00259063
0.00229388
0.0020402
0.00182321
0.00163612
0.0014724
0.00132683
0.00119423
0.00107162
0.000965811
0.000898867
0.0116505
0.0112941
0.0108859
0.0104559
0.0100175
0.00956645
0.00909781
0.00860816
0.00809719
0.00756528
0.00701511
0.00645226
0.00588488
0.00532304
0.00477784
0.00426014
0.00377927
0.00334206
0.00295223
0.00261029
0.00231391
0.00205868
0.00183896
0.00164871
0.00148222
0.00133487
0.00120174
0.00108024
0.000976168
0.000910973
0.0115558
0.0112093
0.0108112
0.0103889
0.00995382
0.00950389
0.00903561
0.00854655
0.0080369
0.00750827
0.00696342
0.00640786
0.00584936
0.00529732
0.004762
0.00425341
0.00378019
0.00334866
0.00296228
0.00262155
0.00232439
0.00206691
0.00184414
0.00165081
0.0014818
0.00133273
0.0011996
0.00107946
0.000977317
0.000913555
0.0115052
0.011167
0.0107771
0.0103607
0.0099273
0.00947645
0.00900619
0.00851513
0.00800346
0.00747428
0.00693071
0.00637834
0.00582473
0.00527873
0.00474984
0.00424727
0.00377897
0.00335075
0.00296583
0.00262473
0.00232569
0.00206529
0.00183924
0.00164288
0.00147173
0.00132151
0.00118866
0.0010701
0.000970011
0.000907295
0.0114916
0.0111614
0.0107789
0.0103673
0.00993497
0.00948174
0.00900757
0.00851197
0.00799536
0.00746205
0.00691604
0.00636305
0.00581057
0.00526703
0.00474124
0.00424168
0.00377562
0.0033484
0.00296301
0.00262002
0.00231801
0.0020541
0.00182457
0.00162534
0.0014525
0.00130169
0.0011696
0.001053
0.000955189
0.000893216
0.0115089
0.0111874
0.0108123
0.0104054
0.00997397
0.00951808
0.00903825
0.00853574
0.0080116
0.00747087
0.00691894
0.00636173
0.00580675
0.00526215
0.00473614
0.00423656
0.00377005
0.00334153
0.00295376
0.00260744
0.00230148
0.00203353
0.00180043
0.00159861
0.00142438
0.00127381
0.00114325
0.00102907
0.000933926
0.000872496
0.0115509
0.0112398
0.0108734
0.0104721
0.0100419
0.00958326
0.00909684
0.00858547
0.00805166
0.00750057
0.00693948
0.0063746
0.00581353
0.00526426
0.00473458
0.00423179
0.00376202
0.00332983
0.00293785
0.00258685
0.00227611
0.00200376
0.00176715
0.0015631
0.00138808
0.00123855
0.00111016
0.000999309
0.000907397
0.000846479
0.0116112
0.0113134
0.0109584
0.0105645
0.0101371
0.00967563
0.00918218
0.00866062
0.00811538
0.0075516
0.00697837
0.00640246
0.0058316
0.0052738
0.00473669
0.00422718
0.0037511
0.00331277
0.00291474
0.0025579
0.00224181
0.00196501
0.00172521
0.00151948
0.00134447
0.00119648
0.00107132
0.000964735
0.000876769
0.000816697
0.0116832
0.0114026
0.0110628
0.0106798
0.0102564
0.00979321
0.00929302
0.00876095
0.00820319
0.00762512
0.00703709
0.00644683
0.00586223
0.0052916
0.00474271
0.00422246
0.00373662
0.00328947
0.0028836
0.00251996
0.00219832
0.00191747
0.0016752
0.00146866
0.0012945
0.00114893
0.00102777
0.000926524
0.000843432
0.000784855
0.011759
0.011501
0.0111816
0.010813
0.0103964
0.00993359
0.00942835
0.00888681
0.00831657
0.00772355
0.00711841
0.00651038
0.00590762
0.00531907
0.00475314
0.00421725
0.00371755
0.00325856
0.00284305
0.00247199
0.00214507
0.00186124
0.00161787
0.00141185
0.00123968
0.00109746
0.000980885
0.00088582
0.000809057
0.000752803
0.0118276
0.0116005
0.0113081
0.0109581
0.0105524
0.0100941
0.00958771
0.00903975
0.00845865
0.00785125
0.00722726
0.00659777
0.00597159
0.00535878
0.00476911
0.00421128
0.00369253
0.00321809
0.00279102
0.00241228
0.00208107
0.00179605
0.00155359
0.00135005
0.00118148
0.0010438
0.00093283
0.00084437
0.000774448
0.000721645
0.0118762
0.0116963
0.0114392
0.0111153
0.0107283
0.0102823
0.00978155
0.00923231
0.00864317
0.008022
0.00737694
0.00672045
0.00606293
0.00541633
0.00479285
0.00420372
0.00365826
0.00316299
0.00272152
0.00233489
0.00200145
0.00171655
0.00147742
0.00127888
0.00111621
0.000984896
0.000880476
0.000798856
0.000735523
0.000689635
0.0118871