/*--------------------------------*- C++ -*----------------------------------*\
  =========                 |
  \\      /  F ield         | OpenFOAM: The Open Source CFD Toolbox
   \\    /   O peration     | Website:  https://openfoam.org
    \\  /    A nd           | Version:  12
     \\/     M anipulation  |
\*---------------------------------------------------------------------------*/
FoamFile
{
    format      ascii;
    class       volVectorField;
    location    "100";
    object      U;
}
// * * * * * * * * * * * * * * * * * * * * * * * * * * * * * * * * * * * * * //

dimensions      [0 1 -1 0 0 0 0];

internalField   nonuniform List<vector> 
6750
(
(0.200065 -0.00313539 0)
(0.200334 -0.0096388 0)
(0.2006 -0.015667 0)
(0.20083 -0.0212757 0)
(0.200686 -0.0265469 0)
(0.200037 -0.0034928 0)
(0.200271 -0.0101941 0)
(0.200458 -0.0161357 0)
(0.200515 -0.0214416 0)
(0.20037 -0.0261837 0)
(0.200026 -0.003652 0)
(0.200121 -0.0104054 0)
(0.200121 -0.0162024 0)
(0.199976 -0.0212027 0)
(0.199704 -0.0254887 0)
(0.20001 -0.00368248 0)
(0.199953 -0.0103392 0)
(0.199758 -0.0159261 0)
(0.199431 -0.020642 0)
(0.199028 -0.0246078 0)
(0.199996 -0.0036116 0)
(0.199796 -0.010043 0)
(0.199418 -0.0153651 0)
(0.198912 -0.0198056 0)
(0.198364 -0.0235122 0)
(0.199984 -0.00345714 0)
(0.199654 -0.00955234 0)
(0.199099 -0.0145537 0)
(0.198412 -0.0187028 0)
(0.197698 -0.0221581 0)
(0.199974 -0.0032337 0)
(0.199521 -0.00889484 0)
(0.198792 -0.0135172 0)
(0.197919 -0.0173426 0)
(0.197026 -0.0205286 0)
(0.199965 -0.00295238 0)
(0.199395 -0.00809346 0)
(0.198497 -0.0122792 0)
(0.197438 -0.0157413 0)
(0.196359 -0.0186285 0)
(0.199956 -0.00262283 0)
(0.199278 -0.00717077 0)
(0.198219 -0.0108676 0)
(0.196981 -0.0139265 0)
(0.195718 -0.0164823 0)
(0.199949 -0.00225481 0)
(0.199172 -0.00615144 0)
(0.197967 -0.00931632 0)
(0.196563 -0.0119372 0)
(0.195129 -0.0141313 0)
(0.199943 -0.00185867 0)
(0.19908 -0.00506226 0)
(0.197749 -0.00766373 0)
(0.196203 -0.00982006 0)
(0.194617 -0.0116285 0)
(0.199938 -0.00144508 0)
(0.199007 -0.00393092 0)
(0.197573 -0.00595046 0)
(0.195911 -0.00762563 0)
(0.194202 -0.00903249 0)
(0.199935 -0.00102435 0)
(0.198954 -0.00278437 0)
(0.197443 -0.0042163 0)
(0.195694 -0.00540399 0)
(0.193893 -0.00640226 0)
(0.199931 -0.00060572 0)
(0.198922 -0.00164734 0)
(0.197361 -0.00249732 0)
(0.195556 -0.00320079 0)
(0.193695 -0.00379222 0)
(0.199921 -0.000200934 0)
(0.198917 -0.000539377 0)
(0.197324 -0.000822186 0)
(0.195492 -0.00105411 0)
(0.193601 -0.00124891 0)
(0.199921 0.000201222 0)
(0.198917 0.00054005 0)
(0.197324 0.000823088 0)
(0.195492 0.00105514 0)
(0.193601 0.00125 0)
(0.199931 0.000606008 0)
(0.198922 0.00164801 0)
(0.197361 0.00249822 0)
(0.195556 0.00320181 0)
(0.193695 0.00379331 0)
(0.199935 0.00102464 0)
(0.198954 0.00278504 0)
(0.197443 0.0042172 0)
(0.195695 0.00540501 0)
(0.193893 0.00640334 0)
(0.199938 0.00144536 0)
(0.199007 0.00393159 0)
(0.197573 0.00595135 0)
(0.195911 0.00762664 0)
(0.194202 0.00903356 0)
(0.199943 0.00185895 0)
(0.19908 0.00506292 0)
(0.197749 0.00766461 0)
(0.196203 0.00982106 0)
(0.194618 0.0116295 0)
(0.199949 0.00225508 0)
(0.199172 0.00615209 0)
(0.197967 0.00931718 0)
(0.196563 0.0119382 0)
(0.195129 0.0141324 0)
(0.199956 0.0026231 0)
(0.199278 0.00717141 0)
(0.198219 0.0108685 0)
(0.196981 0.0139275 0)
(0.195718 0.0164833 0)
(0.199965 0.00295265 0)
(0.199395 0.00809408 0)
(0.198497 0.01228 0)
(0.197438 0.0157422 0)
(0.196359 0.0186295 0)
(0.199974 0.00323396 0)
(0.199521 0.00889545 0)
(0.198792 0.013518 0)
(0.197919 0.0173435 0)
(0.197026 0.0205295 0)
(0.199984 0.0034574 0)
(0.199654 0.00955292 0)
(0.199099 0.0145545 0)
(0.198412 0.0187037 0)
(0.197698 0.0221589 0)
(0.199996 0.00361184 0)
(0.199796 0.0100436 0)
(0.199418 0.0153658 0)
(0.198913 0.0198064 0)
(0.198364 0.023513 0)
(0.20001 0.00368272 0)
(0.199953 0.0103397 0)
(0.199758 0.0159268 0)
(0.199431 0.0206428 0)
(0.199028 0.0246085 0)
(0.200026 0.00365223 0)
(0.200121 0.0104059 0)
(0.200121 0.016203 0)
(0.199976 0.0212033 0)
(0.199704 0.0254894 0)
(0.200037 0.003493 0)
(0.200271 0.0101945 0)
(0.200458 0.0161362 0)
(0.200515 0.0214422 0)
(0.20037 0.0261843 0)
(0.200065 0.00313554 0)
(0.200334 0.00963914 0)
(0.2006 0.0156674 0)
(0.200831 0.0212761 0)
(0.200686 0.0265473 0)
(0.198491 -0.0383891 0)
(0.196741 -0.044014 0)
(0.195251 -0.0491607 0)
(0.194216 -0.0537743 2.44823e-22)
(0.193487 -0.0577414 0)
(0.193006 -0.0610002 0)
(0.192761 -0.0634837 -1.68495e-20)
(0.192739 -0.065096 1.69982e-20)
(0.19292 -0.0657205 1.38597e-22)
(0.19323 -0.0653084 8.86959e-21)
(0.193643 -0.063717 1.30803e-23)
(0.194079 -0.060807 -1.98461e-23)
(0.194458 -0.056646 -4.56707e-21)
(0.194698 -0.0513043 -4.51785e-21)
(0.194721 -0.0449261 -1.04947e-20)
(0.194475 -0.0377224 1.04985e-20)
(0.193927 -0.0299536 -4.18045e-21)
(0.193079 -0.0219022 -3.83637e-21)
(0.191959 -0.013852 3.17823e-22)
(0.190616 -0.00606293 3.66002e-22)
(0.189092 0.00124792 7.29779e-21)
(0.187468 0.00799967 -1.0686e-22)
(0.185839 0.0140381 1.22018e-20)
(0.18426 0.0193015 -1.20938e-20)
(0.182781 0.0237773 0)
(0.181443 0.0274842 0)
(0.180277 0.0304608 -1.49582e-22)
(0.179311 0.0327572 0)
(0.178566 0.0344262 0)
(0.178035 0.0354926 0)
(0.197597 -0.0417678 0)
(0.196011 -0.0472996 0)
(0.194811 -0.052008 0)
(0.193965 -0.0561048 -2.31396e-22)
(0.193356 -0.0595756 0)
(0.192969 -0.0623794 0)
(0.192802 -0.0644449 1.68954e-20)
(0.192842 -0.0656747 -1.73021e-20)
(0.193064 -0.0659614 -1.30401e-22)
(0.193396 -0.0652764 0)
(0.193814 -0.0634421 0)
(0.194228 -0.0603901 -8.35313e-21)
(0.194573 -0.0561805 8.37944e-21)
(0.194769 -0.0508851 0)
(0.194749 -0.0446413 -2.79155e-20)
(0.194464 -0.0376437 2.79158e-20)
(0.193892 -0.0301276 0)
(0.193033 -0.0223493 7.47848e-21)
(0.191914 -0.0145625 -7.51632e-21)
(0.19058 -0.00700127 0)
(0.189091 0.0001418 0)
(0.187507 0.00676089 1.00244e-22)
(0.185893 0.0127329 -1.18534e-20)
(0.184323 0.0179959 1.19427e-20)
(0.182843 0.0225275 0)
(0.18149 0.026337 0)
(0.180293 0.0294543 1.40848e-22)
(0.179276 0.0319223 0)
(0.178464 0.0337969 0)
(0.177865 0.0351501 0)
(0.196756 -0.0443687 0)
(0.195491 -0.049385 0)
(0.194473 -0.0536704 0)
(0.193719 -0.0574295 1.73316e-20)
(0.193183 -0.0606147 -1.75239e-20)
(0.192867 -0.0631619 1.82912e-20)
(0.192766 -0.0649877 -1.84631e-20)
(0.192862 -0.0659943 2.83549e-22)
(0.193126 -0.0660837 0)
(0.193488 -0.0652304 0)
(0.193919 -0.0632404 -2.81944e-22)
(0.194326 -0.060096 0)
(0.194648 -0.055845 0)
(0.194805 -0.0505617 -6.60251e-23)
(0.194733 -0.0443816 -4.57979e-20)
(0.194389 -0.0374916 4.57982e-20)
(0.193752 -0.0301157 6.02945e-23)
(0.192831 -0.0224948 0)
(0.191654 -0.0148664 0)
(0.19027 -0.0074464 2.15047e-22)
(0.188736 -0.000412263 0)
(0.187117 0.0060953 0)
(0.185478 0.0119968 -1.97561e-22)
(0.183881 0.0172285 -1.13604e-20)
(0.182374 0.0217651 1.12546e-20)
(0.180992 0.0256108 -1.02751e-20)
(0.179762 0.0287901 1.01448e-20)
(0.178702 0.0313386 0)
(0.177843 0.0333122 0)
(0.17726 0.0348501 0)
(0.196013 -0.0467046 0)
(0.194973 -0.0512965 -3.76595e-20)
(0.194058 -0.0552432 1.89783e-20)
(0.193373 -0.0587061 3.94892e-20)
(0.192907 -0.0616194 -3.99643e-20)
(0.192658 -0.0639108 1.98761e-20)
(0.192617 -0.065495 0)
(0.192769 -0.0662762 6.23032e-22)
(0.193067 -0.0661764 0)
(0.193467 -0.0651437 0)
(0.193911 -0.0630033 9.99281e-21)
(0.194318 -0.0597692 -9.44148e-21)
(0.194619 -0.055478 0)
(0.194735 -0.0502076 6.93177e-23)
(0.194604 -0.0440912 -6.32144e-20)
(0.194185 -0.037309 6.32147e-20)
(0.193462 -0.0300737 -6.33012e-23)
(0.192447 -0.0226125 0)
(0.191175 -0.0151481 -7.1712e-21)
(0.189698 -0.00788226 6.70048e-21)
(0.188077 -0.0009828 2.0212e-22)
(0.18638 0.00542336 0)
(0.184674 0.0112499 -3.6535e-22)
(0.183016 0.0164416 0)
(0.181455 0.0209735 1.05539e-20)
(0.180026 0.0248476 -2.00379e-20)
(0.178752 0.0280836 1.87972e-20)
(0.177646 0.0307105 8.28066e-21)
(0.17674 0.0327801 -1.72291e-20)
(0.176196 0.0345021 0)
(0.195249 -0.0489275 0)
(0.194344 -0.0531503 4.24763e-20)
(0.193511 -0.0567806 -4.17372e-20)
(0.192897 -0.0599515 0)
(0.192499 -0.0625925 0)
(0.192313 -0.0646279 6.79663e-22)
(0.192329 -0.065971 0)
(0.192532 -0.0665275 -6.52842e-22)
(0.192866 -0.0662405 1.02801e-20)
(0.193299 -0.0650212 -1.04213e-20)
(0.193754 -0.0627358 -1.02175e-20)
(0.194158 -0.0594074 9.95227e-21)
(0.194434 -0.055071 2.94853e-22)
(0.194504 -0.0498071 -1.41503e-22)
(0.194306 -0.0437473 -8.01836e-20)
(0.193801 -0.0370658 8.01839e-20)
(0.192978 -0.0299657 1.22688e-22)
(0.191852 -0.0226614 -2.33058e-22)
(0.190463 -0.0153621 7.10996e-21)
(0.188868 -0.00825608 -6.85305e-21)
(0.187136 -0.00150019 -6.64404e-21)
(0.185334 0.00478754 6.38635e-21)
(0.183532 0.0105241 3.82885e-22)
(0.181788 0.0156584 0)
(0.180151 0.0201675 -3.22229e-22)
(0.178655 0.0240521 0)
(0.177324 0.0273288 0)
(0.176164 0.0300207 -1.75509e-20)
(0.175205 0.0321741 1.67886e-20)
(0.174695 0.0340709 0)
(0.194389 -0.0510382 4.39495e-20)
(0.193567 -0.0549079 -6.90668e-20)
(0.192809 -0.0582345 2.27406e-20)
(0.192264 -0.0611247 0)
(0.191931 -0.0635037 2.29482e-20)
(0.191803 -0.0652918 -2.24703e-20)
(0.191872 -0.0664017 2.20232e-20)
(0.192123 -0.0667424 -2.28209e-20)
(0.192491 -0.0662705 0)
(0.19295 -0.0648642 -6.84949e-22)
(0.193411 -0.0624368 1.04149e-20)
(0.193806 -0.059011 -5.44574e-21)
(0.194051 -0.054623 -8.39588e-22)
(0.194068 -0.049356 -4.68261e-21)
(0.193796 -0.0433408 -9.67221e-20)
(0.193199 -0.0367472 9.67186e-20)
(0.192267 -0.0297699 -4.06632e-21)
(0.191021 -0.0226128 6.78827e-22)
(0.189505 -0.0154728 -3.33994e-21)
(0.187781 -0.00852596 7.01639e-21)
(0.185921 -0.00191832 3.91231e-22)
(0.183999 0.00423964 0)
(0.182084 0.00987113 -1.13681e-20)
(0.180236 0.0149296 1.15895e-20)
(0.178506 0.0193945 -1.0532e-20)
(0.176928 0.0232668 1.01189e-20)
(0.175524 0.026561 5.67411e-22)
(0.1743 0.029296 8.74342e-21)
(0.17328 0.0315119 -2.56516e-20)
(0.172788 0.0335584 1.81527e-20)
(0.193385 -0.0530198 -2.31063e-20)
(0.192616 -0.0565503 2.60994e-20)
(0.191926 -0.0595914 2.60963e-20)
(0.191446 -0.0622167 -2.64602e-20)
(0.191172 -0.064346 2.46711e-20)
(0.191099 -0.0658966 -2.65092e-20)
(0.191219 -0.0667819 -7.9337e-22)
(0.191511 -0.0669161 0)
(0.19191 -0.0662585 1.15999e-20)
(0.192388 -0.0646674 2.78046e-22)
(0.192851 -0.0621003 2.26044e-22)
(0.193229 -0.0585738 -1.13284e-20)
(0.193436 -0.0541276 -4.67329e-21)
(0.193394 -0.0488478 7.37728e-21)
(0.193042 -0.0428653 -1.14955e-19)
(0.192347 -0.0363461 1.10477e-19)
(0.191303 -0.0294786 6.05977e-21)
(0.189934 -0.0224575 -4.42467e-21)
(0.188287 -0.015469 -6.98314e-21)
(0.18643 -0.00867829 -3.21451e-23)
(0.184438 -0.00222122 -7.60723e-23)
(0.182387 0.00379955 6.14309e-21)
(0.18035 0.00931378 0)
(0.178388 0.0142798 2.96473e-22)
(0.176552 0.0186803 -9.32332e-21)
(0.174879 0.0225174 9.85917e-21)
(0.173391 0.025805 -9.03672e-21)
(0.172091 0.0285589 8.34466e-21)
(0.171001 0.0308138 8.33563e-21)
(0.170505 0.0329779 -9.44163e-21)
(0.1922 -0.0548675 0)
(0.191462 -0.0580776 2.45844e-20)
(0.190834 -0.0608535 -2.99374e-20)
(0.190414 -0.0632289 2.81436e-20)
(0.190196 -0.0651195 -2.68753e-20)
(0.190175 -0.066441 2.45731e-20)
(0.190345 -0.0671078 -2.48039e-20)
(0.190666 -0.067045 -1.61277e-21)
(0.191097 -0.0661949 -7.88934e-22)
(0.191584 -0.0644236 -7.65697e-22)
(0.192043 -0.0617173 -7.33584e-22)
(0.192397 -0.0580864 3.51566e-22)
(0.192558 -0.0535757 -5.50479e-21)
(0.192451 -0.0482745 2.7528e-21)
(0.192016 -0.0423139 -1.255e-19)
(0.191221 -0.0358575 1.3007e-19)
(0.190064 -0.0290881 1.8441e-21)
(0.188572 -0.0221926 -3.48293e-21)
(0.186796 -0.0153478 2.16072e-22)
(0.184807 -0.00870908 8.29493e-22)
(0.182682 -0.00240311 3.73791e-22)
(0.180502 0.00347548 3.49552e-22)
(0.17834 0.00886293 6.56683e-22)
(0.176259 0.0137227 -1.08235e-20)
(0.174312 0.018041 1.06165e-20)
(0.172537 0.021822 -9.17787e-21)
(0.170955 0.0250799 8.47271e-21)
(0.16957 0.027829 -7.34606e-21)
(0.1684 0.0301 8.79563e-21)
(0.167877 0.0323472 0)
(0.190798 -0.0565827 0)
(0.190079 -0.0594925 1.79343e-21)
(0.189508 -0.0620214 -2.47896e-20)
(0.189143 -0.0641602 4.18336e-22)
(0.188977 -0.0658214 2.88112e-20)
(0.189006 -0.0669208 1.75341e-21)
(0.189219 -0.0673733 1.75277e-21)
(0.189567 -0.0671196 -1.16504e-20)
(0.190022 -0.0660719 1.43969e-20)
(0.190512 -0.0641262 -5.05439e-24)
(0.190959 -0.0612782 -5.99982e-21)
(0.191281 -0.057539 6.03586e-21)
(0.191391 -0.0529579 -2.3283e-21)
(0.191214 -0.0476277 2.68402e-21)
(0.190692 -0.0416801 -1.42661e-19)
(0.189796 -0.0352766 1.42661e-19)
(0.188528 -0.0285952 1.99043e-21)
(0.186916 -0.0218161 -2.2288e-21)
(0.185016 -0.0151076 3.17039e-21)
(0.1829 -0.00861654 -4.1897e-21)
(0.180648 -0.00246073 -2.88535e-23)
(0.178342 0.0032727 5.44492e-21)
(0.176057 0.00852635 -6.10631e-21)
(0.173858 0.0132688 -5.90607e-22)
(0.171798 0.0174901 -6.13737e-22)
(0.169916 0.0211968 8.77684e-21)
(0.168236 0.0244041 -3.00448e-22)
(0.166758 0.0271259 -9.22297e-21)
(0.165503 0.029391 0)
(0.164933 0.031687 0)
(0.189145 -0.0581674 0)
(0.188438 -0.0607961 -3.20463e-20)
(0.187919 -0.0630937 4.11285e-22)
(0.187607 -0.065007 5.24794e-22)
(0.187491 -0.0664467 5.90307e-20)
(0.187564 -0.0673299 -3.05875e-20)
(0.187815 -0.0675741 -1.83176e-21)
(0.188188 -0.067129 0)
(0.18866 -0.0658813 1.28594e-20)
(0.189147 -0.0637636 -1.30443e-20)
(0.189575 -0.060772 6.27232e-21)
(0.189858 -0.056921 -3.98961e-22)
(0.189911 -0.0522649 -5.94153e-21)
(0.189659 -0.0468996 1.65309e-22)
(0.189049 -0.0409578 -1.56673e-19)
(0.188054 -0.0345992 1.56742e-19)
(0.186677 -0.0279977 -1.26929e-22)
(0.184951 -0.0213272 -3.64022e-21)
(0.182933 -0.0147486 2.90906e-22)
(0.180697 -0.00840058 4.10429e-21)
(0.178325 -0.00239311 -6.02196e-21)
(0.1759 0.00319383 5.55946e-21)
(0.173499 0.00830893 0)
(0.171186 0.0129257 6.17285e-22)
(0.169016 0.0170381 -8.70542e-21)
(0.167028 0.0206553 1.73537e-20)
(0.165246 0.0237939 -2.78262e-22)
(0.163673 0.0264684 4.05824e-22)
(0.162327 0.028707 -7.51459e-21)
(0.161693 0.0310193 0)
(0.18721 -0.0596237 -4.14489e-21)
(0.186511 -0.0619886 0)
(0.186043 -0.0640677 -2.01704e-21)
(0.185781 -0.0657648 3.02709e-20)
(0.185711 -0.0669894 -3.29127e-20)
(0.185827 -0.067661 3.16549e-20)
(0.186109 -0.0677026 -3.19326e-20)
(0.186506 -0.0670598 -1.49639e-20)
(0.186985 -0.0656127 3.15567e-20)
(0.187462 -0.0633241 9.92163e-23)
(0.187865 -0.0601873 -1.31082e-20)
(0.188104 -0.0562218 6.14032e-21)
(0.188095 -0.0514871 -3.31811e-21)
(0.187766 -0.0460824 -4.35131e-21)
(0.187066 -0.0401412 -1.6864e-19)
(0.185973 -0.0338217 1.70971e-19)
(0.184492 -0.027294 -2.94499e-21)
(0.182658 -0.020726 -1.61342e-21)
(0.18053 -0.0142719 3.57346e-21)
(0.178184 -0.0080628 -6.67366e-21)
(0.175703 -0.00220143 1.33493e-22)
(0.173169 0.00323888 9.64846e-21)
(0.170659 0.00821254 -4.89658e-21)
(0.16824 0.0126978 -8.57546e-21)
(0.165965 0.0166922 8.45669e-21)
(0.163875 0.0202078 -7.7295e-21)
(0.161993 0.0232628 7.97445e-21)
(0.160324 0.0258725 -4.09229e-22)
(0.158886 0.0280665 0)
(0.158174 0.0303654 1.06732e-21)
(0.184961 -0.060953 4.31072e-21)
(0.184269 -0.0630687 -3.65739e-20)
(0.183849 -0.0649396 3.50544e-20)
(0.183636 -0.0664274 2.15236e-21)
(0.183612 -0.0674415 2.13949e-21)
(0.183769 -0.0679032 0)
(0.184072 -0.0677475 -2.08508e-21)
(0.184491 -0.066899 -1.7854e-20)
(0.184971 -0.0652559 3.03186e-20)
(0.185435 -0.0627958 -1.63275e-20)
(0.185806 -0.0595121 -8.84846e-22)
(0.185995 -0.0554304 6.36763e-21)
(0.18592 -0.050615 -6.40185e-21)
(0.185512 -0.0451683 -1.74402e-22)
(0.184724 -0.0392246 -1.82164e-19)
(0.183536 -0.0329408 1.82091e-19)
(0.181956 -0.0264827 1.26683e-22)
(0.180021 -0.0200132 -3.526e-21)
(0.177793 -0.0136796 3.5072e-21)
(0.175348 -0.00760601 3.86343e-22)
(0.172768 -0.00188854 -4.73907e-21)
(0.170136 0.00340573 9.97158e-21)
(0.167528 0.0082365 -4.05331e-21)
(0.165012 0.0125864 4.67465e-22)
(0.16264 0.0164564 0)
(0.160454 0.0198612 -4.74341e-22)
(0.158477 0.0228205 -4.49314e-22)
(0.156714 0.0253513 6.50277e-21)
(0.155185 0.0274851 -5.94586e-21)
(0.154386 0.029745 -1.11001e-21)
(0.182364 -0.0621549 0)
(0.181681 -0.0640332 -5.61146e-23)
(0.181311 -0.0657028 3.67062e-20)
(0.181146 -0.0669862 -3.74175e-20)
(0.181165 -0.067793 -3.61382e-20)
(0.181358 -0.0680469 5.63699e-20)
(0.181684 -0.067693 -1.56939e-20)
(0.182119 -0.0666341 -2.26193e-23)
(0.182595 -0.0647975 -2.06737e-21)
(0.18304 -0.0621649 0)
(0.183373 -0.0587337 -7.10855e-21)
(0.183508 -0.0545352 1.37558e-20)
(0.183365 -0.0496387 -6.63136e-21)
(0.182878 -0.0441494 1.82493e-22)
(0.182003 -0.0382026 -1.9339e-19)
(0.180723 -0.0319531 1.93461e-19)
(0.17905 -0.0255631 -1.3256e-22)
(0.177024 -0.0191897 -3.4398e-21)
(0.174705 -0.0129742 6.44871e-21)
(0.172172 -0.00703392 -3.00576e-21)
(0.169505 -0.00145851 0)
(0.166787 0.00369061 5.14754e-22)
(0.164094 0.00837801 -7.60424e-23)
(0.161491 0.0125903 -3.9777e-21)
(0.159033 0.0163316 9.53531e-21)
(0.156759 0.019619 -6.36632e-21)
(0.154693 0.0224738 -5.7125e-21)
(0.15284 0.0249144 5.98034e-21)
(0.151224 0.0269752 -6.53308e-23)
(0.150334 0.0291748 0)
(0.179385 -0.0632267 0)
(0.178716 -0.064876 -3.64151e-20)
(0.178396 -0.0663486 3.96622e-20)
(0.17828 -0.0674307 3.62355e-20)
(0.178342 -0.0680317 -3.94597e-20)
(0.178568 -0.0680803 -2.10109e-20)
(0.178917 -0.0675223 8.25464e-22)
(0.179362 -0.0662508 2.0752e-20)
(0.17983 -0.0642221 4.32839e-21)
(0.180251 -0.061417 0)
(0.180542 -0.0578385 0)
(0.18062 -0.0535242 -5.92866e-21)
(0.180406 -0.0485481 7.26372e-21)
(0.17984 -0.0430181 0)
(0.17888 -0.0370697 -2.03388e-19)
(0.177513 -0.0308558 2.03385e-19)
(0.175754 -0.0245344 0)
(0.173646 -0.0182572 3.11452e-21)
(0.171248 -0.0121591 -3.67506e-21)
(0.168638 -0.00635096 0)
(0.165898 -0.000916455 0)
(0.163107 0.00408835 -9.92902e-22)
(0.160341 0.00863249 2.84981e-21)
(0.157665 0.0127062 -2.92833e-22)
(0.15513 0.0163163 -2.54499e-21)
(0.152778 0.019482 -5.04229e-21)
(0.150631 0.0222258 5.20591e-21)
(0.148695 0.024568 4.67483e-21)
(0.146996 0.0265458 -4.90769e-21)
(0.146014 0.028668 0)
(0.175989 -0.0641637 0)
(0.175341 -0.0655859 0)
(0.175072 -0.0668654 0)
(0.175006 -0.0677477 -3.83958e-20)
(0.175114 -0.0681422 1.88451e-20)
(0.175366 -0.0679883 2.28926e-20)
(0.175741 -0.0672157 2.46995e-21)
(0.176191 -0.065734 1.84567e-20)
(0.176647 -0.0635133 -1.14363e-21)
(0.17704 -0.0605361 -1.77763e-20)
(0.177286 -0.0568121 -1.00041e-21)
(0.177303 -0.0523849 -1.84705e-21)
(0.177018 -0.0473328 -4.02357e-21)
(0.176374 -0.0417662 3.01087e-21)
(0.175332 -0.0358205 -2.11876e-19)
(0.173884 -0.0296458 2.11883e-19)
(0.172048 -0.0233961 1.99419e-21)
(0.169867 -0.0172173 -1.43477e-21)
(0.167401 -0.0112378 7.26665e-22)
(0.164728 -0.00556221 2.85033e-22)
(0.161927 -0.000268423 -3.81083e-21)
(0.159078 0.00459251 6.3125e-22)
(0.156252 0.00899369 3.17662e-21)
(0.153515 0.0129285 -2.68103e-22)
(0.150916 0.0164063 1.89482e-21)
(0.148496 0.0194478 1.95692e-21)
(0.146277 0.0220766 -4.03237e-21)
(0.144267 0.0243146 0)
(0.142493 0.0262021 0)
(0.14142 0.0282341 0)
(0.172136 -0.0649534 -4.38265e-20)
(0.171517 -0.0661514 4.61873e-20)
(0.171304 -0.0672391 0)
(0.171291 -0.0679211 -2.16444e-20)
(0.171442 -0.068108 2.46138e-20)
(0.171725 -0.0677482 2.0696e-20)
(0.172122 -0.0667549 -2.63705e-20)
(0.172573 -0.0650651 0)
(0.173016 -0.0626526 -2.37073e-21)
(0.173376 -0.0595051 0)
(0.173574 -0.055639 3.15094e-24)
(0.17353 -0.0511037 8.81249e-24)
(0.173174 -0.0459819 8.62334e-22)
(0.172452 -0.0403855 3.83643e-22)
(0.171334 -0.0344492 -2.18946e-19)
(0.169812 -0.0283204 2.1893e-19)
(0.167907 -0.0221481 -2.45668e-22)
(0.165663 -0.0160721 -4.10401e-22)
(0.163142 -0.0102145 -4.19467e-23)
(0.160419 -0.00467351 -4.4767e-23)
(0.157571 0.000478568 0)
(0.154677 0.0051954 4.02293e-22)
(0.151807 0.00945379 0)
(0.149021 0.0132499 -1.24431e-21)
(0.146371 0.016595 1.77071e-21)
(0.143895 0.0195113 1.0087e-21)
(0.141616 0.0220231 -1.19228e-21)
(0.139539 0.0241533 0)
(0.137698 0.0259455 3.60609e-21)
(0.136538 0.0278783 -3.73355e-21)
(0.167784 -0.0655805 0)
(0.167203 -0.0665563 7.0151e-23)
(0.167051 -0.0674515 4.90442e-20)
(0.167096 -0.0679306 -4.68299e-20)
(0.167289 -0.0679092 2.85938e-21)
(0.167608 -0.0673347 -5.5867e-21)
(0.168023 -0.0661182 2.70601e-21)
(0.168475 -0.0642218 0)
(0.168901 -0.0616192 0)
(0.169226 -0.0583048 0)
(0.169373 -0.0543022 1.08158e-21)
(0.169266 -0.0496664 -6.45566e-21)
(0.16884 -0.0444836 1.03695e-20)
(0.168045 -0.0388671 -4.98038e-21)
(0.166854 -0.0329502 -2.22437e-19)
(0.165265 -0.0268768 2.24922e-19)
(0.163301 -0.0207903 -2.65348e-21)
(0.161006 -0.0148243 4.71622e-21)
(0.158443 -0.00909402 -3.1005e-21)
(0.155684 -0.00369159 -2.62508e-22)
(0.152805 0.00131636 -1.53462e-22)
(0.14988 0.00588789 0)
(0.146979 0.0100032 0)
(0.14416 0.0136608 -1.84605e-22)
(0.141472 0.0168736 1.72874e-22)
(0.138953 0.0196646 -1.24305e-24)
(0.136623 0.0220586 -5.01755e-22)
(0.134491 0.0240796 5.23985e-22)
(0.13259 0.0257737 1.02856e-22)
(0.13135 0.0276014 0)
(0.162889 -0.0660227 -4.8518e-20)
(0.162353 -0.0667819 4.49826e-20)
(0.162269 -0.0674795 2.1249e-20)
(0.162376 -0.0677505 -2.4724e-20)
(0.162616 -0.0675192 -2.63551e-20)
(0.162972 -0.0667184 2.70117e-20)
(0.163404 -0.0652819 2.22026e-20)
(0.163855 -0.0631795 -1.98626e-20)
(0.164261 -0.0603894 1.12815e-20)
(0.164549 -0.0569139 -1.01257e-20)
(0.164644 -0.052783 9.59619e-21)
(0.164474 -0.0480571 -4.75327e-21)
(0.163978 -0.0428254 -3.39748e-21)
(0.163113 -0.0372019 1.93381e-22)
(0.161857 -0.0313177 -2.26538e-19)
(0.160209 -0.0253122 2.26516e-19)
(0.158197 -0.0193231 -1.07981e-22)
(0.155864 -0.013477 -1.42641e-21)
(0.153272 -0.0078822 -6.22343e-22)
(0.150492 -0.00262435 1.85399e-21)
(0.147596 0.00223531 -6.95459e-22)
(0.144658 0.0066591 7.93836e-22)
(0.141741 0.0106302 -3.98629e-22)
(0.138903 0.0141493 3.78071e-22)
(0.136191 0.0172303 -3.74053e-22)
(0.13364 0.0198967 3.36449e-22)
(0.131272 0.0221734 6.90934e-22)
(0.129094 0.024085 -7.08979e-22)
(0.127143 0.0256798 5.81348e-22)
(0.12583 0.0273995 -5.85683e-22)
(0.157397 -0.0662547 -3.19446e-21)
(0.156915 -0.0668003 -5.06505e-20)
(0.156907 -0.0672927 5.57184e-20)
(0.157081 -0.0673509 0)
(0.157374 -0.0669018 -3.18715e-21)
(0.157767 -0.0658696 0)
(0.158216 -0.0642146 -3.02193e-21)
(0.158665 -0.0619083 2.21336e-20)
(0.15905 -0.0589362 -2.38442e-20)
(0.159299 -0.0553078 1.26135e-21)
(0.15934 -0.0510601 -2.30797e-21)
(0.159107 -0.0462581 -1.0322e-21)
(0.158545 -0.0409934 -4.62714e-22)
(0.157614 -0.0353797 -2.00724e-22)
(0.156299 -0.0295453 -2.26394e-19)
(0.154603 -0.0236243 2.26384e-19)
(0.152553 -0.0177477 1.12081e-22)
(0.150195 -0.0120346 1.72421e-22)
(0.14759 -0.00658612 -1.94925e-22)
(0.144804 -0.00148137 0)
(0.141909 0.00322382 -4.01121e-23)
(0.138972 0.00749581 1.06497e-22)
(0.136056 0.0113206 8.3124e-23)
(0.133215 0.0147003 -1.91783e-22)
(0.130493 0.0176499 0)
(0.127925 0.0201927 -2.69296e-22)
(0.12553 0.0223533 0)
(0.123318 0.0241566 -2.97667e-21)
(0.121327 0.0256525 3.1884e-21)
(0.119948 0.0272634 -6.61455e-23)
(0.151243 -0.0662435 -5.04137e-20)
(0.150829 -0.0665722 5.29562e-20)
(0.150907 -0.0668515 9.66297e-23)
(0.151151 -0.0666937 2.96975e-20)
(0.151504 -0.0660133 -4.98147e-20)
(0.151935 -0.0647512 2.99282e-20)
(0.152402 -0.0628794 3.1107e-21)
(0.152848 -0.0603737 3.85986e-23)
(0.153209 -0.0572276 0)
(0.153417 -0.0534584 -1.30261e-21)
(0.153404 -0.0491092 -6.57247e-21)
(0.153109 -0.0442494 1.01198e-20)
(0.152483 -0.0389722 4.57586e-22)
(0.151493 -0.0333898 -1.24461e-21)
(0.150126 -0.0276267 -2.21611e-19)
(0.148392 -0.0218109 2.23967e-19)
(0.146318 -0.0160658 -9.96393e-22)
(0.143951 -0.0105027 -1.21389e-22)
(0.141348 -0.00521479 1.22024e-21)
(0.138574 -0.000274592 -1.00695e-21)
(0.135697 0.00426746 4.14236e-23)
(0.132779 0.00838162 0)
(0.129881 0.0120563 -1.28425e-22)
(0.127053 0.015295 1.97415e-22)
(0.124337 0.018113 -2.31035e-21)
(0.121765 0.020533 5.85481e-21)
(0.119357 0.0225791 -2.39467e-21)
(0.117122 0.024276 1.57618e-22)
(0.1151 0.0256744 -3.69928e-21)
(0.113665 0.0271777 3.81124e-21)
(0.144354 -0.0659418 0)
(0.144025 -0.066048 0)
(0.144195 -0.0661062 -3.13693e-20)
(0.144519 -0.0657243 2.53604e-20)
(0.144937 -0.0648064 0)
(0.145408 -0.0633167 -3.36322e-21)
(0.145892 -0.0612313 -3.30557e-21)
(0.146333 -0.0585336 -3.0925e-21)
(0.146669 -0.0552256 0)
(0.146834 -0.051332 0)
(0.146766 -0.0469019 -1.22123e-21)
(0.14641 -0.042008 4.54212e-21)
(0.145724 -0.0367441 -4.97563e-21)
(0.14468 -0.0312201 -1.99304e-22)
(0.143273 -0.0255553 -2.16077e-19)
(0.141512 -0.0198706 2.16122e-19)
(0.139429 -0.0142811 9.33963e-23)
(0.137068 -0.00888913 -4.3748e-22)
(0.134486 -0.00378011 6.47947e-22)
(0.131743 0.00098057 0)
(0.128902 0.00534779 0)
(0.126024 0.00929554 0)
(0.123162 0.0128145 0)
(0.120364 0.0159089 -5.48386e-22)
(0.11767 0.018594 -4.16169e-22)
(0.115111 0.0208918 0)
(0.112703 0.0228249 -4.96385e-21)
(0.110457 0.0244176 3.89598e-21)
(0.108415 0.0257208 0)
(0.106933 0.027119 0)
(0.136638 -0.0652859 -3.70807e-21)
(0.136412 -0.0651621 0)
(0.136685 -0.0649949 0)
(0.137101 -0.0643747 0)
(0.137585 -0.06322 0)
(0.138098 -0.0615055 0)
(0.138599 -0.0592132 3.37603e-21)
(0.139033 -0.0563356 1.6297e-21)
(0.139339 -0.0528831 -1.14679e-20)
(0.139459 -0.0488878 2.63693e-21)
(0.139336 -0.0444039 2.11318e-20)
(0.138921 -0.0395066 -1.39873e-20)
(0.138179 -0.034289 6.99715e-22)
(0.137091 -0.0288574 3.40505e-21)
(0.135652 -0.0233246 -2.04577e-19)
(0.13388 -0.0178033 2.04534e-19)
(0.131804 -0.0123992 8.86136e-22)
(0.129469 -0.00720523 -5.5457e-22)
(0.126927 -0.00229823 -1.74126e-22)
(0.124237 0.00226357 -1.02528e-21)
(0.121454 0.00644045 -4.40494e-22)
(0.118636 0.01021 1.57696e-21)
(0.115831 0.0135647 3.44275e-22)
(0.113083 0.0165095 5.60072e-22)
(0.11043 0.019059 0)
(0.107899 0.021234 0)
(0.105506 0.0230553 0)
(0.103264 0.0245461 0)
(0.101213 0.0257568 0)
(0.0996938 0.0270531 -6.11077e-22)
(0.127986 -0.0641895 7.64888e-21)
(0.127881 -0.0638297 -3.05856e-20)
(0.128272 -0.0634244 3.17782e-20)
(0.128786 -0.0625605 0)
(0.129339 -0.0611724 -2.96048e-20)
(0.129894 -0.059239 3.42103e-20)
(0.130409 -0.056752 -2.899e-20)
(0.130831 -0.0537131 2.4532e-20)
(0.131106 -0.0501413 0)
(0.131178 -0.0460753 9.22009e-21)
(0.130998 -0.0415736 -2.70561e-21)
(0.130527 -0.0367126 -1.35231e-20)
(0.129735 -0.0315834 4.52445e-21)
(0.128611 -0.026287 1.29694e-21)
(0.127155 -0.0209286 -1.88954e-19)
(0.125387 -0.0156111 1.8694e-19)
(0.123338 -0.0104297 6.04901e-22)
(0.12105 -0.00546743 -3.73836e-23)
(0.118573 -0.000791881 9.38518e-22)
(0.115958 0.00354608 9.6315e-22)
(0.113259 0.00751217 -1.99074e-21)
(0.110525 0.0110874 -4.09658e-22)
(0.107801 0.0142659 -7.70964e-21)
(0.105126 0.0170528 6.20925e-21)
(0.102534 0.0194617 -6.73176e-21)
(0.10005 0.0215115 7.59365e-21)
(0.0976905 0.023221 0)
(0.0954659 0.0246117 -7.74617e-21)
(0.0934196 0.0257327 7.4997e-21)
(0.0918736 0.0269305 1.47509e-21)
(0.118257 -0.0625301 2.44917e-20)
(0.118295 -0.0619267 -3.18744e-20)
(0.118816 -0.0612724 -2.80567e-20)
(0.11943 -0.0601677 3.33567e-20)
(0.120054 -0.0585519 3.48165e-20)
(0.120648 -0.0564125 -6.89624e-20)
(0.121171 -0.0537513 4.81227e-20)
(0.121577 -0.0505796 -1.26969e-20)
(0.121814 -0.0469245 0)
(0.121835 -0.0428305 -1.07662e-20)
(0.121599 -0.0383591 9.69426e-21)
(0.121074 -0.0335864 -5.38239e-22)
(0.12024 -0.0285998 -1.59344e-21)
(0.119091 -0.0234933 2.20753e-21)
(0.117635 -0.0183627 -1.6476e-19)
(0.115891 -0.0132999 1.63917e-19)
(0.113893 -0.00838851 3.37064e-22)
(0.111678 -0.00370059 -1.10715e-22)
(0.109292 0.000705913 -1.16526e-22)
(0.106782 0.00478774 -3.37063e-21)
(0.104195 0.00851604 3.19002e-21)
(0.101573 0.0118751 9.64951e-22)
(0.0989575 0.0148604 5.00821e-21)
(0.0963818 0.0174768 -1.29015e-20)
(0.093876 0.0197365 1.69529e-20)
(0.0914632 0.0216561 -8.3224e-21)
(0.0891568 0.0232518 -1.02608e-20)
(0.0869685 0.0245429 9.93237e-21)
(0.0849419 0.0255762 8.56127e-21)
(0.0833817 0.0266785 -1.07286e-20)
(0.107268 -0.0601271 3.83635e-20)
(0.107471 -0.0592702 4.53548e-21)
(0.108127 -0.0583701 -5.43669e-21)
(0.108842 -0.0570313 -3.48182e-20)
(0.109532 -0.0552024 -4.04678e-21)
(0.110157 -0.0528813 5.93025e-21)
(0.110681 -0.0500799 5.76267e-23)
(0.111061 -0.0468189 0)
(0.111253 -0.0431326 0)
(0.111219 -0.0390702 -1.08054e-20)
(0.110926 -0.0346944 1.22887e-20)
(0.110352 -0.0300791 5.42076e-22)
(0.109486 -0.025306 0)
(0.108329 -0.0204602 3.86685e-22)
(0.106893 -0.0156261 -1.33736e-19)
(0.105199 -0.0108831 1.33022e-19)
(0.10328 -0.00630212 1.23355e-22)
(0.10117 -0.00194326 0)
(0.0989095 0.00214557 1.17356e-22)
(0.0965394 0.00592897 -3.53719e-21)
(0.0940989 0.00938349 3.35787e-21)
(0.091625 0.0124964 -5.52621e-22)
(0.0891512 0.0152644 0)
(0.086707 0.0176916 1.68023e-22)
(0.0843179 0.0197882 2.23676e-21)
(0.0820043 0.0215682 -1.40858e-21)
(0.0797774 0.0230447 1.27455e-20)
(0.0776487 0.0242339 -1.87789e-23)
(0.0756618 0.0251797 6.80636e-22)
(0.0741034 0.0261879 -1.00043e-20)
(0.0947677 -0.0567003 -3.59962e-20)
(0.0951494 -0.0555983 3.08054e-20)
(0.0959389 -0.0544618 0)
(0.0967479 -0.0529083 -3.18804e-20)
(0.0974917 -0.0508978 3.75118e-20)
(0.0981341 -0.0484387 -1.769e-20)
(0.098644 -0.0455532 2.89842e-20)
(0.0989854 -0.0422701 -1.33203e-20)
(0.0991235 -0.0386297 0)
(0.0990292 -0.0346837 0)
(0.0986813 -0.0304941 5.15355e-21)
(0.0980676 -0.0261302 -5.11322e-21)
(0.0971853 -0.0216653 0)
(0.0960419 -0.0171735 1.51749e-22)
(0.0946533 -0.0127259 -9.2963e-20)
(0.093043 -0.00838758 9.29286e-20)
(0.0912397 -0.00421557 7.29129e-24)
(0.0892753 -0.000257319 0)
(0.0871833 0.00344983 1.80732e-21)
(0.0849968 0.00687849 -1.69971e-21)
(0.0827476 0.0100105 0)
(0.0804652 0.012836 0)
(0.0781765 0.0153521 8.16507e-21)
(0.0759054 0.0175619 -1.53261e-20)
(0.0736729 0.0194734 6.43756e-21)
(0.0714957 0.0210972 -1.4511e-20)
(0.0693833 0.0224429 1.61434e-20)
(0.0673464 0.0235234 0)
(0.0654274 0.0243782 -1.52555e-20)
(0.0638934 0.0252896 1.20679e-20)
(0.0803987 -0.0518038 -3.5448e-20)
(0.080957 -0.0504849 3.44777e-20)
(0.0818622 -0.0491436 -3.64628e-20)
(0.0827409 -0.0474228 1.97793e-22)
(0.083513 -0.0452946 5.60224e-22)
(0.0841476 -0.0427773 5.31789e-20)
(0.0846212 -0.0399016 -1.6533e-20)
(0.0849069 -0.036703 -1.79039e-21)
(0.0849804 -0.0332252 1.21334e-20)
(0.0848241 -0.0295202 -2.28942e-20)
(0.0844279 -0.025646 1.06722e-20)
(0.0837898 -0.0216645 3.8642e-21)
(0.0829158 -0.017638 -4.60113e-21)
(0.0818191 -0.0136266 1.54533e-21)
(0.0805187 -0.00968622 -4.20903e-20)
(0.0790378 -0.00586603 4.18057e-20)
(0.0774019 -0.00220799 -8.09635e-22)
(0.0756373 0.00125377 2.80494e-21)
(0.0737702 0.00449275 -1.83606e-21)
(0.0718254 0.00748958 -6.59155e-21)
(0.0698262 0.0102312 1.41625e-20)