/*--------------------------------*- C++ -*----------------------------------*\
  =========                 |
  \\      /  F ield         | OpenFOAM: The Open Source CFD Toolbox
   \\    /   O peration     | Website:  https://openfoam.org
    \\  /    A nd           | Version:  12
     \\/     M anipulation  |
\*---------------------------------------------------------------------------*/
FoamFile
{
    format      ascii;
    class       volVectorField;
    location    "100";
    object      UMean;
}
// * * * * * * * * * * * * * * * * * * * * * * * * * * * * * * * * * * * * * //

dimensions      [0 1 -1 0 0 0 0];

internalField   nonuniform List<vector> 
6750
(
(0.200084 -0.003006 0)
(0.200427 -0.00895418 0)
(0.200769 -0.0142583 0)
(0.201061 -0.0190517 0)
(0.201031 -0.0234697 0)
(0.200036 -0.00344572 0)
(0.200309 -0.00967559 0)
(0.200558 -0.0149596 0)
(0.200698 -0.0195251 0)
(0.200664 -0.0235062 0)
(0.200025 -0.00362248 0)
(0.200146 -0.0099527 0)
(0.200206 -0.0151522 0)
(0.200147 -0.0194935 0)
(0.199985 -0.0231275 0)
(0.200009 -0.00366443 0)
(0.199975 -0.00994636 0)
(0.199839 -0.015001 0)
(0.199598 -0.0191342 0)
(0.1993 -0.0225291 0)
(0.199994 -0.00360425 0)
(0.199817 -0.00970742 0)
(0.199495 -0.0145579 0)
(0.199073 -0.0184827 0)
(0.198625 -0.0216848 0)
(0.199981 -0.00345868 0)
(0.199672 -0.0092689 0)
(0.199171 -0.0138549 0)
(0.198565 -0.0175487 0)
(0.197948 -0.0205581 0)
(0.199971 -0.00324178 0)
(0.199535 -0.00865785 0)
(0.198859 -0.0129173 0)
(0.198064 -0.0163439 0)
(0.197266 -0.0191387 0)
(0.199961 -0.00296467 0)
(0.199406 -0.00789748 0)
(0.198558 -0.0117701 0)
(0.197575 -0.0148871 0)
(0.19659 -0.0174355 0)
(0.199952 -0.0026372 0)
(0.199285 -0.00701096 0)
(0.198274 -0.0104424 0)
(0.197111 -0.0132079 0)
(0.195942 -0.0154755 0)
(0.199944 -0.00226949 0)
(0.199176 -0.00602365 0)
(0.198017 -0.00896882 0)
(0.196688 -0.0113464 0)
(0.195348 -0.0133014 0)
(0.199937 -0.00187227 0)
(0.199082 -0.00496302 0)
(0.197795 -0.00738874 0)
(0.196323 -0.00935008 0)
(0.194832 -0.010967 0)
(0.199932 -0.00145658 0)
(0.199007 -0.0038574 0)
(0.197616 -0.00574336 0)
(0.196027 -0.00727015 0)
(0.194413 -0.00853125 0)
(0.199928 -0.00103309 0)
(0.198952 -0.00273425 0)
(0.197484 -0.00407297 0)
(0.195808 -0.00515706 0)
(0.194102 -0.00605358 0)
(0.199924 -0.000611309 0)
(0.198919 -0.00161878 0)
(0.1974 -0.00241414 0)
(0.195668 -0.00305691 0)
(0.193901 -0.00358872 0)
(0.199915 -0.000203037 0)
(0.198913 -0.000531009 0)
(0.197362 -0.000796024 0)
(0.195603 -0.00100821 0)
(0.193807 -0.00118359 0)
(0.199915 0.000202322 0)
(0.198913 0.000529383 0)
(0.197362 0.000793771 0)
(0.195603 0.00100552 0)
(0.193807 0.00118057 0)
(0.199924 0.000610592 0)
(0.198919 0.00161715 0)
(0.1974 0.00241189 0)
(0.195668 0.00305423 0)
(0.193901 0.00358571 0)
(0.199928 0.00103238 0)
(0.198952 0.00273263 0)
(0.197484 0.00407074 0)
(0.195808 0.0051544 0)
(0.194102 0.00605059 0)
(0.199932 0.00145588 0)
(0.199007 0.00385579 0)
(0.197616 0.00574113 0)
(0.196027 0.0072675 0)
(0.194413 0.00852828 0)
(0.199937 0.00187158 0)
(0.199082 0.00496143 0)
(0.197795 0.00738654 0)
(0.196323 0.00934746 0)
(0.194832 0.010964 0)
(0.199944 0.0022688 0)
(0.199176 0.00602207 0)
(0.198017 0.00896665 0)
(0.196688 0.0113438 0)
(0.195347 0.0132985 0)
(0.199952 0.00263653 0)
(0.199285 0.00700941 0)
(0.198274 0.0104402 0)
(0.197111 0.0132053 0)
(0.195942 0.0154726 0)
(0.199961 0.00296402 0)
(0.199406 0.00789596 0)
(0.198558 0.011768 0)
(0.197575 0.0148846 0)
(0.19659 0.0174327 0)
(0.199971 0.00324116 0)
(0.199535 0.00865637 0)
(0.198859 0.0129152 0)
(0.198064 0.0163414 0)
(0.197266 0.019136 0)
(0.199981 0.00345809 0)
(0.199672 0.00926746 0)
(0.199171 0.0138528 0)
(0.198565 0.0175462 0)
(0.197948 0.0205553 0)
(0.199994 0.00360369 0)
(0.199816 0.00970602 0)
(0.199495 0.0145559 0)
(0.199073 0.0184802 0)
(0.198624 0.0216819 0)
(0.200009 0.00366391 0)
(0.199975 0.009945 0)
(0.199839 0.014999 0)
(0.199598 0.0191317 0)
(0.1993 0.0225262 0)
(0.200025 0.00362199 0)
(0.200146 0.00995139 0)
(0.200206 0.0151503 0)
(0.200147 0.019491 0)
(0.199985 0.0231245 0)
(0.200036 0.00344527 0)
(0.200309 0.00967433 0)
(0.200558 0.0149577 0)
(0.200698 0.0195226 0)
(0.200664 0.0235031 0)
(0.200084 0.00300561 0)
(0.200427 0.008953 0)
(0.200769 0.0142564 0)
(0.201061 0.0190492 0)
(0.201031 0.0234665 0)
(0.199532 -0.0331379 0)
(0.198323 -0.0375295 0)
(0.197363 -0.041459 0)
(0.196803 -0.0449012 -2.29241e-22)
(0.19651 -0.0477758 0)
(0.19643 -0.0500412 0)
(0.196551 -0.0516479 1.48638e-20)
(0.196861 -0.0525176 -1.49662e-20)
(0.19733 -0.0525582 -1.1155e-22)
(0.197907 -0.0517065 -7.26499e-21)
(0.198558 -0.0498155 9.1969e-23)
(0.199205 -0.0468247 9.24886e-23)
(0.199774 -0.0427595 3.63314e-21)
(0.200183 -0.0376848 3.55238e-21)
(0.200362 -0.0317364 8.2865e-21)
(0.200258 -0.0251149 -8.2894e-21)
(0.199843 -0.0180684 3.40999e-21)
(0.199123 -0.0108674 3.31052e-21)
(0.198127 -0.0037801 -1.86279e-23)
(0.196909 0.00295518 -8.75346e-25)
(0.195538 0.00915004 -6.65378e-21)
(0.194091 0.0146714 1.03345e-22)
(0.192645 0.0194297 -1.32357e-20)
(0.191263 0.0233911 1.31186e-20)
(0.19 0.0265627 0)
(0.188895 0.0289803 0)
(0.187979 0.0306968 2.03615e-22)
(0.187278 0.0317773 0)
(0.186828 0.0323024 0)
(0.186585 0.0323257 0)
(0.198896 -0.0359292 0)
(0.197834 -0.0402155 0)
(0.197114 -0.0437745 0)
(0.196708 -0.0467953 2.16558e-22)
(0.19651 -0.0492737 0)
(0.196506 -0.0511823 0)
(0.196693 -0.0524645 -1.28647e-20)
(0.197059 -0.0530383 1.31264e-20)
(0.197568 -0.0528206 1.04936e-22)
(0.198178 -0.0517445 0)
(0.198843 -0.049669 0)
(0.199488 -0.0465669 6.67687e-21)
(0.200043 -0.0424631 -6.6979e-21)
(0.200432 -0.0374251 0)
(0.200589 -0.0315829 2.28613e-20)
(0.200466 -0.0251225 -2.28583e-20)
(0.200041 -0.01827 0)
(0.199319 -0.0112716 -6.33489e-21)
(0.19833 -0.00436959 6.36332e-21)
(0.197125 0.00221867 0)
(0.195769 0.00831789 0)
(0.194333 0.0137981 -9.68754e-23)
(0.192886 0.0185747 1.21837e-20)
(0.191491 0.0226088 -1.2283e-20)
(0.1902 0.025899 0)
(0.189052 0.0284721 0)
(0.188074 0.0303718 -1.91643e-22)
(0.187287 0.0316515 0)
(0.186728 0.0323764 0)
(0.186396 0.0325929 0)
(0.198285 -0.0380941 0)
(0.197485 -0.0419473 0)
(0.196914 -0.0451624 0)
(0.196586 -0.047917 -1.16623e-20)
(0.196453 -0.0501759 1.17931e-20)
(0.196517 -0.0518904 -1.2291e-20)
(0.196773 -0.0529926 1.24066e-20)
(0.197207 -0.0533977 -2.04419e-22)
(0.197776 -0.0530306 0)
(0.198444 -0.0518148 0)
(0.199154 -0.0496227 2.04375e-22)
(0.199831 -0.0464436 0)
(0.200405 -0.0423005 0)
(0.200796 -0.0372635 5.42936e-23)
(0.20094 -0.0314612 3.92671e-20)
(0.200791 -0.0250731 -3.92655e-20)
(0.200331 -0.0183158 -5.6225e-23)
(0.199566 -0.0114222 0)
(0.19853 -0.00462172 0)
(0.197276 0.00188003 -2.26664e-22)
(0.195869 0.00791411 0)
(0.194382 0.0133546 0)
(0.192884 0.018124 2.0963e-22)
(0.191435 0.0221821 1.3832e-20)
(0.190087 0.0255246 -1.37031e-20)
(0.188877 0.0281739 1.41606e-20)
(0.187833 0.0301698 -1.40017e-20)
(0.18697 0.0315618 0)
(0.186321 0.0324167 0)
(0.185929 0.0328192 0)
(0.197736 -0.0400276 0)
(0.197116 -0.0435263 2.27271e-20)
(0.196634 -0.04647 -1.16027e-20)
(0.19637 -0.0489953 -2.34995e-20)
(0.196308 -0.0510487 2.37721e-20)
(0.196446 -0.052573 -1.18359e-20)
(0.196779 -0.0534965 0)
(0.197291 -0.0537349 -3.7402e-22)
(0.197934 -0.0532219 0)
(0.198676 -0.0518653 0)
(0.199447 -0.0495612 -7.22017e-21)
(0.200175 -0.046307 6.83126e-21)
(0.200781 -0.0421258 0)
(0.201184 -0.0370901 -5.70012e-23)
(0.201319 -0.0313269 5.65936e-20)
(0.201141 -0.0250103 -5.65854e-20)
(0.20063 -0.0183472 5.90241e-23)
(0.199799 -0.0115593 0)
(0.198685 -0.00486338 7.84783e-21)
(0.197346 0.00154602 -7.32223e-21)
(0.19585 0.00750899 -2.5229e-22)
(0.194272 0.0129075 0)
(0.192684 0.0176639 5.01454e-22)
(0.191148 0.0217394 0)
(0.189715 0.0251279 -1.53377e-20)
(0.188424 0.0278486 2.99002e-20)
(0.187299 0.0299368 -2.96048e-20)
(0.186356 0.0314369 -1.48348e-20)
(0.185623 0.0324136 2.9304e-20)
(0.18519 0.0329973 0)
(0.197156 -0.0418616 0)
(0.196648 -0.0450601 -2.2094e-20)
(0.196242 -0.0477584 2.17593e-20)
(0.19605 -0.050064 0)
(0.196065 -0.0519174 0)
(0.196284 -0.0532561 -3.42224e-22)
(0.1967 -0.0540056 0)
(0.197296 -0.0540819 3.92228e-22)
(0.198022 -0.0534239 -6.3961e-21)
(0.198844 -0.0519263 6.42667e-21)
(0.199684 -0.0495114 7.12981e-21)
(0.200468 -0.0461783 -6.9489e-21)
(0.20111 -0.0419527 -2.28644e-22)
(0.201527 -0.0369095 1.1929e-22)
(0.201651 -0.031175 7.48871e-20)
(0.201437 -0.0249185 -7.48752e-20)
(0.200869 -0.0183392 -1.31988e-22)
(0.19996 -0.0116487 2.70064e-22)
(0.198752 -0.00505246 -8.65408e-21)
(0.197307 0.00126548 8.3482e-21)
(0.1957 0.00715422 8.99221e-21)
(0.194009 0.012502 -8.66557e-21)
(0.192307 0.0172352 -5.25522e-22)
(0.190661 0.0213164 0)
(0.189123 0.0247386 5.46086e-22)
(0.187733 0.0275186 0)
(0.186514 0.0296886 0)
(0.185481 0.031288 3.25065e-20)
(0.18466 0.0323768 -3.10363e-20)
(0.184186 0.0331296 0)
(0.196487 -0.0436079 -1.92387e-20)
(0.196057 -0.0465305 3.04512e-20)
(0.195727 -0.0490019 -1.01749e-20)
(0.195613 -0.051104 0)
(0.195709 -0.0527714 -1.07396e-20)
(0.196013 -0.0539365 1.05698e-20)
(0.196517 -0.054522 -1.12137e-20)
(0.197201 -0.0544455 1.17044e-20)
(0.198014 -0.0536451 0)
(0.198917 -0.0520092 4.00532e-22)
(0.199827 -0.0494837 -7.05397e-21)
(0.200665 -0.0460669 3.37476e-21)
(0.20134 -0.0417878 3.00829e-22)
(0.201768 -0.0367245 3.79323e-21)
(0.201877 -0.0310028 9.42914e-20)
(0.201623 -0.0247891 -9.42916e-20)
(0.200992 -0.0182765 4.69988e-21)
(0.199999 -0.0116682 -4.58026e-22)
(0.198689 -0.00516044 4.8444e-21)
(0.197131 0.00107241 -9.44777e-21)
(0.195402 0.00688773 -6.14675e-22)
(0.193585 0.01218 0)
(0.191757 0.0168803 1.91603e-20)
(0.189987 0.0209538 -1.95837e-20)
(0.18833 0.0243937 1.93813e-20)
(0.186827 0.027216 -1.85289e-20)
(0.185504 0.0294504 -1.16789e-21)
(0.184371 0.0311327 -1.77983e-20)
(0.183453 0.0323181 5.07848e-20)
(0.182929 0.033222 -3.54122e-20)
(0.195699 -0.045264 8.54586e-21)
(0.195327 -0.047933 -9.66015e-21)
(0.195075 -0.0502002 -1.00649e-20)
(0.195042 -0.0521178 1.02179e-20)
(0.195222 -0.0536145 -1.0212e-20)
(0.195613 -0.0546179 1.10257e-20)
(0.196209 -0.0550484 3.02283e-22)
(0.196979 -0.0548275 0)
(0.197882 -0.053885 -6.36029e-21)
(0.198862 -0.0521136 -7.93775e-22)
(0.199837 -0.0494761 -8.4094e-22)
(0.200724 -0.0459696 7.48871e-21)
(0.201427 -0.0416275 3.84185e-21)
(0.201858 -0.0365307 -6.26801e-21)
(0.201947 -0.0308059 1.16873e-19)
(0.201649 -0.0246176 -1.12333e-19)
(0.200951 -0.0181542 -7.31876e-21)
(0.199871 -0.0116124 5.55447e-21)
(0.198459 -0.00518042 1.03891e-20)
(0.196784 0.00097556 8.67092e-22)
(0.19493 0.0067205 7.87425e-22)
(0.192983 0.0119551 -1.05231e-20)
(0.191024 0.0166154 0)
(0.189124 0.0206695 -7.04582e-22)
(0.187341 0.0241122 1.93912e-20)
(0.185717 0.0269594 -2.03992e-20)
(0.18428 0.0292396 1.98917e-20)
(0.183039 0.0309863 -1.84124e-20)
(0.182019 0.0322507 -1.74622e-20)
(0.181434 0.0332836 1.9828e-20)
(0.194764 -0.0468387 0)
(0.194442 -0.0492793 -7.94629e-21)
(0.194268 -0.0513652 9.73538e-21)
(0.194317 -0.0531159 -9.76984e-21)
(0.194583 -0.0544547 9.30188e-21)
(0.195063 -0.0553058 -9.64291e-21)
(0.195751 -0.0555878 9.70929e-21)
(0.196606 -0.0552275 6.89782e-22)
(0.197594 -0.0541413 3.73286e-22)
(0.198646 -0.0522357 4.05278e-22)
(0.19968 -0.0494823 4.52748e-22)
(0.200607 -0.0458792 -2.42925e-22)
(0.201329 -0.0414641 4.55218e-21)
(0.201757 -0.0363213 -2.01183e-21)
(0.201819 -0.0305788 1.34124e-19)
(0.201472 -0.0244001 -1.38997e-19)
(0.200704 -0.0179702 -2.78762e-21)
(0.199537 -0.0114802 4.65053e-21)
(0.198022 -0.00511191 -3.56536e-22)
(0.196234 0.00097577 -1.4283e-21)
(0.194257 0.00665467 -7.3883e-22)
(0.192182 0.0118315 -7.43238e-22)
(0.190092 0.016447 -1.48512e-21)
(0.188061 0.0204727 2.4424e-20)
(0.186149 0.0239055 -2.42056e-20)
(0.184401 0.0267622 2.23179e-20)
(0.182846 0.0290708 -2.06664e-20)
(0.181493 0.0308637 1.86444e-20)
(0.180366 0.0321892 -2.22694e-20)
(0.179709 0.0333273 0)
(0.193657 -0.0483455 0)
(0.193381 -0.0505828 -4.38751e-22)
(0.193286 -0.0525076 7.03656e-21)
(0.193418 -0.054106 3.39638e-22)
(0.193771 -0.0552972 -8.61227e-21)
(0.19434 -0.056003 -6.20892e-22)
(0.195116 -0.0561411 -6.13768e-22)
(0.196054 -0.055642 5.09396e-21)
(0.19712 -0.0544099 -6.24114e-21)
(0.198236 -0.052369 -1.5623e-23)
(0.19932 -0.0494942 3.80913e-21)
(0.200277 -0.0457866 -3.83202e-21)
(0.201008 -0.0412887 1.98513e-21)
(0.201423 -0.0360883 -2.26346e-21)
(0.201451 -0.0303152 1.59471e-19)
(0.201051 -0.0241322 -1.59484e-19)
(0.200211 -0.0177219 -2.88943e-21)
(0.198958 -0.011271 3.24337e-21)
(0.197344 -0.00495532 -5.80396e-21)
(0.195446 0.0010724 7.69878e-21)
(0.193352 0.00669023 -3.35216e-23)
(0.191154 0.0118104 -1.28206e-20)
(0.188937 0.0163783 1.42108e-20)
(0.186779 0.020369 1.61726e-21)
(0.184741 0.023782 1.5234e-21)
(0.18287 0.026635 -2.44739e-20)
(0.181195 0.0289566 1.40276e-22)
(0.179729 0.0307786 2.65423e-20)
(0.178493 0.032148 0)
(0.177755 0.0333677 0)
(0.192352 -0.0497987 0)
(0.192123 -0.0518553 7.25918e-21)
(0.192107 -0.0536354 3.51398e-22)
(0.192322 -0.055093 4.35585e-22)
(0.192761 -0.0561441 -1.58403e-20)
(0.193417 -0.056709 8.56186e-21)
(0.194277 -0.056706 6.41375e-22)
(0.195294 -0.0560648 0)
(0.196429 -0.0546836 -5.98833e-21)
(0.1976 -0.0525038 5.98384e-21)
(0.198722 -0.0495013 -3.92561e-21)
(0.199698 -0.0456813 -3.84783e-22)
(0.200428 -0.0410914 4.35612e-21)
(0.200821 -0.035823 -1.56148e-22)
(0.200808 -0.030008 1.83956e-19)
(0.20035 -0.0238092 -1.84054e-19)
(0.199438 -0.017407 1.93081e-22)
(0.198099 -0.0109843 6.51171e-21)
(0.19639 -0.00471168 2.4037e-22)
(0.194388 0.00126365 -8.3758e-21)
(0.192183 0.00682543 1.47646e-20)
(0.18987 0.011891 -1.38288e-20)
(0.187535 0.0164102 0)
(0.185256 0.0203614 -1.69039e-21)
(0.183098 0.0237466 2.72933e-20)
(0.181107 0.0265853 -5.54228e-20)
(0.179316 0.0289068 1.52231e-22)
(0.177737 0.0307428 -1.2705e-21)
(0.176392 0.0321403 2.50607e-20)
(0.175567 0.0334195 0)
(0.190824 -0.0512116 6.21413e-22)
(0.190641 -0.0531061 0)
(0.190704 -0.0547544 4.17681e-22)
(0.191003 -0.0560795 -6.58587e-21)
(0.191526 -0.0569948 7.01317e-21)
(0.192267 -0.0574202 -8.74871e-21)
(0.193202 -0.0572766 8.91343e-21)
(0.194293 -0.0564864 5.63008e-21)
(0.195487 -0.0549528 -1.27939e-20)
(0.196702 -0.0526287 -1.19124e-21)
(0.197852 -0.0494913 6.78887e-21)
(0.198835 -0.0455512 -4.5286e-21)
(0.199551 -0.0408608 2.04503e-21)
(0.199914 -0.0355157 4.05172e-21)
(0.199853 -0.0296498 2.08694e-19)
(0.199333 -0.023426 -2.11574e-19)
(0.198347 -0.0170229 4.76001e-21)
(0.196925 -0.0106197 3.69658e-21)
(0.195125 -0.00438255 -7.02163e-21)
(0.193026 0.00154674 1.68116e-20)
(0.190719 0.00705702 1.30443e-21)
(0.188299 0.0120704 -2.84203e-20)
(0.185855 0.0165406 1.51103e-20)
(0.183465 0.0204495 3.02712e-20)
(0.181193 0.0238014 -2.98519e-20)
(0.179091 0.0266174 2.92219e-20)
(0.177188 0.0289279 -3.06761e-20)
(0.175499 0.030765 1.79946e-21)
(0.174049 0.0321765 0)
(0.173135 0.0334956 -3.29324e-21)
(0.189042 -0.0525955 -6.46171e-22)
(0.188908 -0.054342 5.07625e-21)
(0.18905 -0.0558671 -4.91892e-21)
(0.18943 -0.0570643 -3.95421e-22)
(0.190035 -0.0578455 -4.46065e-22)
(0.190856 -0.0581296 0)
(0.191861 -0.0578426 5.30005e-22)
(0.193017 -0.0568957 6.15055e-21)
(0.194259 -0.0552052 -1.15889e-20)
(0.195508 -0.0527299 6.89148e-21)
(0.196672 -0.0494503 4.9712e-22)
(0.19765 -0.0453827 -4.73856e-21)
(0.198343 -0.0405848 4.76403e-21)
(0.198665 -0.0351561 1.75684e-22)
(0.198551 -0.0292325 2.37646e-19)
(0.197964 -0.0229772 -2.37539e-19)
(0.196904 -0.0165668 -2.2445e-22)
(0.195401 -0.0101771 7.64449e-21)
(0.193515 -0.00396979 -7.6034e-21)
(0.191326 0.00191824 -9.8457e-22)
(0.188926 0.00738068 1.5545e-20)
(0.18641 0.012344 -3.40621e-20)
(0.183867 0.0167658 1.43524e-20)
(0.181375 0.0206306 -2.11134e-21)
(0.179 0.0239452 0)
(0.176793 0.0267324 1.95989e-21)
(0.174786 0.0290233 1.9184e-21)
(0.172994 0.0308511 -3.02897e-20)
(0.171443 0.0322646 2.79092e-20)
(0.17044 0.033607 3.42481e-21)
(0.186975 -0.0539581 0)
(0.186891 -0.0555663 -8.29589e-23)
(0.187111 -0.0569725 -4.32043e-21)
(0.187571 -0.0580431 4.40172e-21)
(0.188255 -0.0586885 6.25408e-21)
(0.189149 -0.0588283 -1.06459e-20)
(0.190218 -0.0583904 3.31948e-21)
(0.191429 -0.0572787 -4.71317e-23)
(0.192709 -0.0554251 7.21669e-22)
(0.193979 -0.0527911 0)
(0.195145 -0.0493624 4.34528e-21)
(0.196106 -0.0451611 -9.34368e-21)
(0.196766 -0.0402502 4.99398e-21)
(0.197039 -0.034733 -1.83834e-22)
(0.196864 -0.0287476 2.67064e-19)
(0.196208 -0.022457 -2.67174e-19)
(0.195073 -0.0160357 2.34866e-22)
(0.193491 -0.00965617 8.27684e-21)
(0.191525 -0.0034754 -1.68369e-20)
(0.189254 0.00237433 8.54291e-21)
(0.18677 0.00779136 0)
(0.184168 0.0127063 -2.30216e-21)
(0.181536 0.01708 -9.81869e-23)
(0.178954 0.0208999 2.02366e-20)
(0.176487 0.0241746 -5.10644e-20)
(0.174185 0.0269286 3.49904e-20)
(0.172082 0.0291936 3.41553e-20)
(0.170193 0.0310036 -3.55462e-20)
(0.168548 0.0324094 -9.65922e-23)
(0.167459 0.0337613 0)
(0.184586 -0.0553036 0)
(0.184553 -0.0567776 2.32112e-21)
(0.184851 -0.0580655 -2.55134e-21)
(0.185389 -0.0590074 -3.98824e-21)
(0.186147 -0.0595123 4.2931e-21)
(0.187106 -0.0595025 3.89288e-21)
(0.188234 -0.0589026 8.12456e-22)
(0.189488 -0.0576183 -4.98923e-21)
(0.190796 -0.0555943 -1.46843e-21)
(0.192075 -0.0527942 0)
(0.193231 -0.04921 0)
(0.194164 -0.04487 4.60101e-21)
(0.194779 -0.0398425 -5.59257e-21)
(0.194995 -0.0342346 0)
(0.194753 -0.028186 2.98347e-19)
(0.194026 -0.0218592 -2.98351e-19)
(0.192816 -0.0154265 0)
(0.19116 -0.00905642 -8.40365e-21)
(0.189119 -0.00290149 1.00689e-20)
(0.186773 0.00291083 0)
(0.184216 0.00828336 0)
(0.181538 0.0131505 4.90681e-21)
(0.17883 0.0174764 -1.73819e-20)
(0.176168 0.0212508 -1.57292e-22)
(0.173619 0.024484 1.6967e-20)
(0.171233 0.0272016 3.80786e-20)
(0.169043 0.0294362 -3.97525e-20)
(0.167066 0.0312221 -3.60676e-20)
(0.165333 0.0326124 3.74461e-20)
(0.164164 0.033963 0)
(0.181832 -0.056631 0)
(0.181853 -0.0579689 0)
(0.182227 -0.0591361 0)
(0.18284 -0.0599442 2.8674e-21)
(0.183669 -0.0603009 -7.53832e-22)
(0.184686 -0.0601338 -2.62757e-21)
(0.185865 -0.0593589 -4.1447e-22)
(0.187152 -0.0578946 -5.17135e-21)
(0.188476 -0.0556916 -1.1646e-21)
(0.189752 -0.0527184 6.52656e-21)
(0.190885 -0.0489736 5.36682e-22)
(0.191778 -0.0444918 1.27341e-21)
(0.192339 -0.0393466 3.87555e-21)
(0.192491 -0.0336483 -2.94102e-21)
(0.192178 -0.0275381 3.3148e-19)
(0.191377 -0.0211774 -3.31475e-19)
(0.190094 -0.0147358 -4.86266e-21)
(0.188367 -0.00837755 3.38203e-21)
(0.186257 -0.00225037 -2.4766e-21)
(0.183846 0.00352317 -1.30878e-21)
(0.181224 0.00885033 2.13005e-20)
(0.178483 0.0136692 5.89653e-22)
(0.17571 0.0179468 -2.12161e-20)
(0.172981 0.021675 2.73089e-21)
(0.170361 0.0248654 -1.8422e-20)
(0.167901 0.0275447 -2.34012e-20)
(0.165633 0.0297455 4.31338e-20)
(0.163576 0.031503 0)
(0.161764 0.0328719 0)
(0.160519 0.0342132 0)
(0.178667 -0.0579315 -4.71924e-22)
(0.178742 -0.0591286 5.49618e-22)
(0.179191 -0.0601692 0)
(0.179877 -0.0608352 9.14515e-22)
(0.180771 -0.0610345 -1.18985e-21)
(0.181842 -0.0606976 -2.61848e-21)
(0.183062 -0.0597358 3.49009e-21)
(0.184372 -0.0580826 0)
(0.1857 -0.0556926 7.36773e-22)
(0.18696 -0.0525404 0)
(0.18806 -0.0486315 -4.98511e-24)
(0.188903 -0.0440071 2.62308e-24)
(0.189401 -0.0387456 -7.78195e-22)
(0.18948 -0.0329606 -4.45285e-22)
(0.189093 -0.0267937 3.67023e-19)
(0.188217 -0.0204049 -3.67046e-19)
(0.186863 -0.0139603 5.97161e-22)
(0.185069 -0.00761938 1.2745e-21)
(0.182899 -0.00152474 -5.10475e-23)
(0.180431 0.00420618 -5.57969e-23)
(0.177756 0.00948511 0)
(0.174962 0.0142537 -2.83514e-21)
(0.172135 0.0184817 0)
(0.16935 0.0221626 1.7484e-20)
(0.166671 0.0253092 -2.27346e-20)
(0.164148 0.0279486 -1.98134e-20)
(0.161813 0.0301137 2.20993e-20)
(0.159685 0.0318394 0)
(0.157801 0.033183 -3.75379e-20)
(0.156488 0.034509 4.04662e-20)
(0.175034 -0.0591905 0)
(0.175165 -0.0602387 1.05155e-22)
(0.175689 -0.0611434 1.12641e-21)
(0.176447 -0.0616559 -8.86388e-22)
(0.177398 -0.0616868 -4.47759e-23)
(0.178518 -0.061164 4.09016e-22)
(0.17977 -0.0600045 -3.79071e-22)
(0.181093 -0.0581535 0)
(0.182414 -0.0555692 0)
(0.183647 -0.0522336 0)
(0.184701 -0.0481595 -5.76794e-22)
(0.185483 -0.0433945 5.35359e-21)
(0.185909 -0.0380217 -9.21233e-21)
(0.185912 -0.0321571 5.79254e-21)
(0.185446 -0.0259422 4.02429e-19)
(0.184496 -0.0195348 -4.06946e-19)
(0.183073 -0.0130967 7.48434e-21)
(0.181219 -0.00678213 -1.73245e-20)
(0.178996 -0.000727918 1.26803e-20)
(0.176482 0.00495382 1.47731e-21)
(0.173764 0.0101794 1.58232e-21)
(0.17093 0.014894 0)
(0.168062 0.0190697 0)
(0.165234 0.0227015 3.08156e-21)
(0.162507 0.0258032 -6.24764e-21)
(0.159932 0.0284016 3.14851e-21)
(0.157539 0.0305294 4.79722e-20)
(0.155349 0.0322216 -4.38534e-20)
(0.1534 0.0335369 1.46628e-22)
(0.152025 0.0348437 0)
(0.170871 -0.0603833 -3.82721e-21)
(0.171057 -0.061275 3.58838e-21)
(0.171656 -0.0620298 1.17886e-21)
(0.172483 -0.0623744 -1.31656e-21)
(0.17349 -0.0622231 5.69298e-22)
(0.174653 -0.0614982 -6.52573e-22)
(0.175927 -0.0601313 -3.02816e-21)
(0.177252 -0.0580733 2.6385e-21)
(0.178554 -0.0552889 -3.54502e-21)
(0.179748 -0.0517679 3.25814e-21)
(0.180745 -0.0475304 -5.84579e-21)
(0.181457 -0.0426304 2.12883e-21)
(0.181804 -0.0371551 2.76646e-21)
(0.181724 -0.0312221 -2.55124e-22)
(0.181179 -0.0249724 4.44001e-19)
(0.180155 -0.0185601 -4.44033e-19)
(0.178669 -0.0121421 3.52835e-22)
(0.176761 -0.00586668 6.88601e-21)
(0.174495 0.000135729 6.78089e-21)
(0.171945 0.00575868 -1.27325e-20)
(0.169198 0.0109232 1.19862e-20)
(0.166336 0.015578 -1.16834e-20)
(0.16344 0.0196973 3.11899e-20)
(0.160581 0.0232774 -2.71608e-20)
(0.157819 0.0263322 -2.38645e-20)
(0.155203 0.0288886 2.33305e-20)
(0.152762 0.0309782 2.60652e-20)
(0.150518 0.0326356 -2.8526e-20)
(0.148513 0.0339211 -5.03175e-20)
(0.147081 0.0352062 4.77797e-20)
(0.166102 -0.0614789 -4.10309e-22)
(0.166344 -0.0622012 -5.5994e-21)
(0.16702 -0.0627893 6.21763e-21)
(0.167913 -0.0629506 0)
(0.168973 -0.0625993 -1.60231e-22)
(0.170171 -0.0616584 0)
(0.17146 -0.0600741 1.80754e-22)
(0.172777 -0.0578017 -4.30104e-21)
(0.174049 -0.0548139 4.78783e-21)
(0.175193 -0.0511085 -4.60546e-22)
(0.176122 -0.0467134 1.22119e-21)
(0.176754 -0.0416883 7.65348e-22)
(0.177015 -0.036124 4.54486e-22)
(0.17685 -0.030139 2.64811e-22)
(0.176224 -0.0238723 4.8549e-19)
(0.17513 -0.0174738 -4.85509e-19)
(0.173585 -0.0110943 -3.66231e-22)
(0.171633 -0.00487504 -7.86037e-22)
(0.169334 0.00106027 1.73226e-21)
(0.166762 0.00661137 0)
(0.163998 0.0117042 1.86148e-21)
(0.161123 0.0162908 2.81292e-20)
(0.158213 0.0203477 -2.92256e-20)
(0.155337 0.023872 -3.81409e-21)
(0.152552 0.0268775 0)
(0.149906 0.0293903 -3.71919e-21)
(0.147428 0.0314409 0)
(0.145138 0.0330632 -5.1131e-20)
(0.143083 0.0343182 5.32198e-20)
(0.141601 0.0355801 -3.24928e-21)
(0.160637 -0.0624326 -7.64696e-21)
(0.160941 -0.062968 7.96124e-21)
(0.161694 -0.06337 1.39622e-22)
(0.162652 -0.0633328 2.70335e-21)
(0.163763 -0.062762 -3.32139e-21)
(0.164989 -0.0615938 1.25405e-21)
(0.166283 -0.0597827 -1.86063e-22)
(0.167582 -0.0572908 6.89759e-23)
(0.168812 -0.0540995 0)
(0.169894 -0.0502153 4.75607e-22)
(0.170746 -0.0456731 4.40095e-21)
(0.171289 -0.0405382 -6.51371e-21)
(0.171459 -0.0349042 -4.89062e-22)
(0.171205 -0.0288894 2.1525e-21)
(0.1705 -0.0226296 5.26478e-19)
(0.169339 -0.0162692 -5.31997e-19)
(0.167745 -0.00995185 3.47136e-21)
(0.165758 -0.00381094 8.82971e-22)
(0.163439 0.0020374 -1.68337e-20)
(0.160859 0.00749952 1.48696e-20)
(0.158094 0.0125064 -1.92234e-21)
(0.155222 0.0170138 0)
(0.152313 0.021 -3.93606e-21)
(0.149434 0.0244625 3.92609e-21)
(0.146641 0.0274149 -2.79096e-20)
(0.143976 0.0298821 6.64926e-20)
(0.141471 0.0318929 -2.6674e-20)
(0.139146 0.0334797 2.19111e-22)
(0.137048 0.0347043 -5.56535e-20)
(0.135519 0.0359423 5.96297e-20)
(0.154371 -0.0631825 0)
(0.154741 -0.0635101 0)
(0.155573 -0.0637088 -5.02912e-21)
(0.156599 -0.0634526 4.20532e-21)
(0.157757 -0.0626461 0)
(0.159004 -0.06124 -1.12937e-22)
(0.160294 -0.0591952 4.12515e-24)
(0.161564 -0.0564825 3.51506e-22)
(0.162741 -0.0530925 0)
(0.16375 -0.0490404 0)
(0.164513 -0.0443682 6.45056e-22)
(0.164961 -0.0391458 -4.0953e-21)
(0.165034 -0.0334686 4.73314e-21)
(0.164691 -0.0274533 2.98276e-22)
(0.163909 -0.0212314 5.74435e-19)
(0.162689 -0.0149403 -5.74655e-19)
(0.161054 -0.00871521 -4.22533e-22)
(0.159046 -0.00268079 5.83952e-21)
(0.156723 0.00305529 -7.63051e-21)
(0.154151 0.00840644 0)
(0.151403 0.0133091 0)
(0.148551 0.0177225 0)
(0.145661 0.0216265 0)
(0.142796 0.0250192 -4.48825e-21)
(0.140008 0.0279133 -4.20228e-21)
(0.13734 0.0303317 0)
(0.134819 0.0323012 -3.73328e-20)
(0.132466 0.0338524 2.84194e-20)
(0.130333 0.0350469 0)
(0.128762 0.0362608 0)
(0.147175 -0.0636455 -9.02956e-22)
(0.147619 -0.0637439 0)
(0.148536 -0.0637197 0)
(0.14963 -0.0632226 0)
(0.150829 -0.0621683 0)
(0.152091 -0.0605158 0)
(0.153368 -0.0582345 -4.21308e-24)
(0.154597 -0.0553051 -9.62882e-23)
(0.155709 -0.051728 2.94807e-21)
(0.156633 -0.0475267 9.80806e-22)
(0.157298 -0.0427498 -1.11953e-20)
(0.157643 -0.0374709 1.03851e-20)
(0.157617 -0.0317859 8.18194e-22)
(0.157184 -0.0258086 -4.722e-21)
(0.15633 -0.0196643 6.21351e-19)
(0.15506 -0.0134821 -6.21407e-19)
(0.153397 -0.00738745 -7.72247e-21)
(0.151384 -0.001495 -6.661e-22)
(0.149074 0.00409678 2.57124e-20)
(0.146531 0.00930898 -3.32054e-20)
(0.143821 0.0140837 1.58075e-21)
(0.141009 0.0183837 1.83553e-20)
(0.138159 0.0221906 2.43055e-21)
(0.135327 0.0255023 4.58388e-21)
(0.132562 0.0283303 0)
(0.129904 0.0306952 0)
(0.12738 0.032621 0)
(0.125011 0.0341362 0)
(0.12285 0.0353012 0)
(0.121242 0.0364909 -4.18009e-21)
(0.138891 -0.063708 2.03311e-21)
(0.139421 -0.0635555 -8.15829e-21)
(0.140428 -0.0632847 8.50368e-21)
(0.14159 -0.0625307 0)
(0.142827 -0.0612191 -4.40015e-21)
(0.144095 -0.0593164 5.05174e-21)
(0.145346 -0.0568025 -1.98505e-22)
(0.146521 -0.0536688 2.26865e-22)
(0.147555 -0.0499253 0)
(0.148382 -0.0456039 -3.97324e-21)
(0.148941 -0.0407588 -1.00929e-21)
(0.149177 -0.035466 1.02854e-20)
(0.149049 -0.0298203 -4.60719e-21)
(0.14853 -0.0239309 -2.92731e-21)
(0.147612 -0.0179151 6.71967e-19)
(0.146303 -0.0118921 -6.65104e-19)
(0.144629 -0.00597597 -3.76025e-21)
(0.14263 -0.000270244 -7.85518e-21)
(0.140356 0.00513673 2.76379e-20)
(0.137865 0.0101743 1.17597e-21)
(0.135217 0.0147906 -2.16894e-20)
(0.132471 0.018952 -2.60048e-21)
(0.129684 0.0226416 -4.62838e-20)
(0.126907 0.025857 3.7551e-20)
(0.124186 0.0286077 -3.53589e-20)
(0.121558 0.030912 3.94364e-20)
(0.119046 0.0327902 0)
(0.116673 0.0342678 -3.76196e-20)
(0.114494 0.0354037 3.64224e-20)
(0.112851 0.0365687 8.77372e-21)
(0.129324 -0.0632097 7.74692e-21)
(0.129953 -0.0627843 -1.00425e-20)
(0.131056 -0.0622465 -7.82822e-21)
(0.132283 -0.0612254 9.53627e-21)
(0.13355 -0.0596521 6.80871e-21)
(0.134813 -0.0575035 -1.08698e-20)
(0.136026 -0.0547712 4.57702e-21)
(0.137132 -0.0514575 -5.92089e-22)
(0.138073 -0.047582 0)
(0.138791 -0.043184 4.38939e-21)
(0.139233 -0.0383223 -3.79982e-21)
(0.139355 -0.0330737 4.63909e-22)
(0.139126 -0.0275298 2.5899e-21)
(0.138527 -0.0217932 -4.15628e-21)
(0.137555 -0.0159714 7.17809e-19)
(0.136225 -0.0101717 -7.14264e-19)
(0.13456 -0.00449518 -6.42616e-21)
(0.1326 0.000967018 4.38902e-21)
(0.130389 0.00613762 -1.26077e-21)
(0.12798 0.0109549 -2.62134e-20)
(0.125424 0.0153732 2.34329e-20)
(0.122774 0.0193627 5.43477e-21)
(0.120079 0.0229078 2.48333e-20)
(0.117386 0.0260054 -6.03437e-20)
(0.114734 0.028663 7.58665e-20)
(0.112157 0.0308954 -3.69151e-20)
(0.109678 0.032719 -4.20939e-20)
(0.107318 0.0341559 4.07467e-20)
(0.105132 0.0352616 3.81431e-20)
(0.103462 0.0364007 -4.83681e-20)
(0.118222 -0.0619182 1.38995e-20)
(0.118964 -0.0612001 1.68546e-21)
(0.120162 -0.0603854 -2.77472e-21)
(0.121449 -0.0590937 -1.16308e-20)
(0.122735 -0.0572654 -9.80355e-22)
(0.123978 -0.0548892 1.17149e-21)
(0.125134 -0.0519688 8.99028e-23)
(0.126154 -0.0485176 0)
(0.126986 -0.0445642 0)
(0.127581 -0.040154 4.28874e-21)
(0.127898 -0.0353485 -5.04479e-21)
(0.127903 -0.0302233 -4.67217e-22)
(0.127576 -0.0248648 0)
(0.126907 -0.0193664 -1.24429e-21)
(0.125899 -0.0138236 7.6478e-19)
(0.124568 -0.00832961 -7.61065e-19)
(0.122941 -0.00297116 -2.70525e-21)
(0.12105 0.00217456 0)
(0.118938 0.00704226 1.26975e-21)
(0.116646 0.0115797 -1.98873e-20)
(0.114219 0.015748 1.9371e-20)
(0.111702 0.019521 -2.81447e-21)
(0.109137 0.0228843 0)
(0.106562 0.0258339 2.14642e-22)
(0.104013 0.0283748 8.67793e-21)
(0.101518 0.0305179 -5.55513e-21)
(0.0990981 0.0322752 4.53694e-20)
(0.0967726 0.0336641 -3.36794e-23)
(0.094599 0.0347366 4.37319e-21)
(0.0929109 0.0358458 -3.7112e-20)
(0.10525 -0.0594817 -1.5128e-20)
(0.106113 -0.0584681 1.30343e-20)
(0.1074 -0.0573766 0)
(0.108731 -0.0558267 -1.07629e-20)
(0.110017 -0.0537701 1.28201e-20)
(0.111217 -0.0512081 -3.79513e-21)
(0.112294 -0.0481565 4.93876e-21)
(0.113205 -0.0446389 -1.66616e-21)
(0.113908 -0.0406914 0)
(0.114367 -0.0363639 0)
(0.114552 -0.0317183 -3.53898e-21)
(0.114442 -0.0268263 3.74773e-21)
(0.114025 -0.0217664 0)
(0.113302 -0.01662 -3.82186e-22)
(0.112281 -0.0114682 8.07509e-19)
(0.110982 -0.00638796 -8.07553e-19)
(0.109427 -0.00144994 5.77614e-22)
(0.107648 0.00328392 0)
(0.105677 0.0077613 1.00491e-20)
(0.10355 0.0119401 -9.7841e-21)
(0.101301 0.0157883 0)
(0.0989658 0.0192838 0)
(0.0965774 0.0224131 2.87614e-20)
(0.0941672 0.0251711 -5.32763e-20)
(0.0917641 0.0275598 2.16935e-20)
(0.0893929 0.0295857 -4.65532e-20)
(0.0870698 0.0312559 5.13323e-20)
(0.0848131 0.0325829 0)
(0.0826799 0.0336132 -4.99232e-20)
(0.0809919 0.0346834 3.96261e-20)
(0.0899427 -0.0553466 -1.70015e-20)
(0.0909209 -0.054058 1.65197e-20)
(0.0922726 -0.0527169 -1.62499e-20)
(0.0936172 -0.0509541 1.8369e-21)
(0.0948682 -0.0487342 2.32493e-21)
(0.0959901 -0.0460702 1.69547e-20)
(0.0969546 -0.0429888 -4.42087e-21)
(0.0977293 -0.039522 -1.64139e-22)
(0.0982841 -0.0357115 -1.53243e-21)
(0.0985947 -0.0316089 5.44973e-21)
(0.0986446 -0.0272733 -3.95792e-21)
(0.0984255 -0.0227696 -4.96088e-21)
(0.0979374 -0.0181647 7.44127e-21)
(0.0971878 -0.0135255 -4.69667e-21)
(0.0961908 -0.00891564 8.50373e-19)
(0.0949655 -0.0043941 -8.46169e-19)
(0.093534 -1.34541e-05 -7.62098e-21)
(0.0919209 0.00418064 1.66331e-20)
(0.0901512 0.00814968 -9.85104e-21)
(0.0882502 0.0118622 -2.53739e-20)
(0.086243 0.0152935 5.13207e-20)
(0.084154 0.0184252 -2.5724e-20)
(0.082007 0.021245 -3.21331e-21)
(0.079825 0.0237462 2.71894e-20)
(0.0776302 0.0259273 -7.68556e-20)