/*--------------------------------*- C++ -*----------------------------------*\
  =========                 |
  \\      /  F ield         | OpenFOAM: The Open Source CFD Toolbox
   \\    /   O peration     | Website:  https://openfoam.org
    \\  /    A nd           | Version:  12
     \\/     M anipulation  |
\*---------------------------------------------------------------------------*/
FoamFile
{
    format      ascii;
    class       volSymmTensorField;
    location    "100";
    object      UPrime2Mean;
}
// * * * * * * * * * * * * * * * * * * * * * * * * * * * * * * * * * * * * * //

dimensions      [0 2 -2 0 0 0 0];

internalField   nonuniform List<symmTensor> 
6750
(
(4.50682e-10 8.33577e-09 0 2.62006e-07 0 0)
(1.04306e-08 1.49897e-07 0 3.53022e-06 0 0)
(3.38046e-08 4.90651e-07 0 1.0988e-05 0 0)
(6.25694e-08 9.76408e-07 0 2.24736e-05 0 0)
(1.53952e-07 2.11217e-06 0 3.74567e-05 0 0)
(6.21154e-11 1.03294e-09 0 2.04196e-07 0 0)
(1.93633e-09 6.5238e-08 0 3.0356e-06 0 0)
(1.35021e-08 3.11819e-07 0 9.60394e-06 0 0)
(4.74647e-08 8.5644e-07 0 1.95593e-05 0 0)
(1.28753e-07 1.8504e-06 0 3.21368e-05 0 0)
(5.10198e-11 1.11831e-09 0 1.86217e-07 0 0)
(1.88456e-09 6.90813e-08 0 2.79083e-06 0 0)
(1.59825e-08 3.56772e-07 0 8.72839e-06 0 0)
(6.14768e-08 9.88572e-07 0 1.74121e-05 0 0)
(1.58362e-07 2.00556e-06 0 2.78256e-05 0 0)
(4.27866e-11 1.02118e-09 0 1.63054e-07 0 0)
(3.00178e-09 8.44584e-08 0 2.48064e-06 0 0)
(2.40189e-08 4.22839e-07 0 7.6956e-06 0 0)
(8.54758e-08 1.11752e-06 0 1.51594e-05 0 0)
(2.01718e-07 2.15092e-06 0 2.39119e-05 0 0)
(3.1205e-11 7.79098e-10 0 1.36983e-07 0 0)
(4.19602e-09 9.35688e-08 0 2.13382e-06 0 0)
(3.29298e-08 4.63292e-07 0 6.61105e-06 0 0)
(1.1178e-07 1.19395e-06 0 1.29511e-05 0 0)
(2.51404e-07 2.2399e-06 0 2.03172e-05 0 0)
(1.86594e-11 4.25062e-10 0 1.11286e-07 0 0)
(5.142e-09 9.51596e-08 0 1.78095e-06 0 0)
(4.12656e-08 4.76488e-07 0 5.53356e-06 0 0)
(1.38388e-07 1.22036e-06 0 1.0824e-05 0 0)
(3.0646e-07 2.27142e-06 0 1.6946e-05 0 0)
(1.10266e-11 6.67848e-11 0 8.76957e-08 0 0)
(5.86732e-09 9.17039e-08 0 1.44083e-06 0 0)
(4.91301e-08 4.69649e-07 0 4.49782e-06 0 0)
(1.65826e-07 1.20719e-06 0 8.80212e-06 0 0)
(3.67651e-07 2.24855e-06 0 1.37748e-05 0 0)
(1.16759e-11 -2.19878e-10 0 6.68914e-08 0 0)
(6.48019e-09 8.52304e-08 0 1.12495e-06 0 0)
(5.68566e-08 4.47822e-07 0 3.52967e-06 0 0)
(1.94465e-07 1.1595e-06 0 6.91628e-06 0 0)
(4.34537e-07 2.16868e-06 0 1.08263e-05 0 0)
(2.09798e-11 -4.07741e-10 0 4.90459e-08 0 0)
(7.04944e-09 7.6797e-08 0 8.4113e-07 0 0)
(6.45081e-08 4.13326e-07 0 2.65176e-06 0 0)
(2.23738e-07 1.07854e-06 0 5.20382e-06 0 0)
(5.04674e-07 2.02728e-06 0 8.14971e-06 0 0)
(3.70919e-11 -4.98297e-10 0 3.41441e-08 0 0)
(7.59293e-09 6.68943e-08 0 5.95021e-07 0 0)
(7.18755e-08 3.67437e-07 0 1.88375e-06 0 0)
(2.52312e-07 9.65378e-07 0 3.70194e-06 0 0)
(5.74124e-07 1.82298e-06 0 5.80069e-06 0 0)
(5.68339e-11 -5.06066e-10 0 2.21165e-08 0 0)
(8.09485e-09 5.58117e-08 0 3.90571e-07 0 0)
(7.86031e-08 3.11587e-07 0 1.24104e-06 0 0)
(2.78485e-07 8.23067e-07 0 2.442e-06 0 0)
(6.38262e-07 1.56022e-06 0 3.82834e-06 0 0)
(7.66855e-11 -4.49587e-10 0 1.28667e-08 0 0)
(8.52018e-09 4.38169e-08 0 2.29909e-07 0 0)
(8.42941e-08 2.47769e-07 0 7.33095e-07 0 0)
(3.0063e-07 6.57136e-07 0 1.44417e-06 0 0)
(6.92813e-07 1.24937e-06 0 2.26499e-06 0 0)
(9.30061e-11 -3.44811e-10 0 6.26044e-09 0 0)
(8.82179e-09 3.12255e-08 0 1.1327e-07 0 0)
(8.8603e-08 1.7853e-07 0 3.62651e-07 0 0)
(3.17483e-07 4.74929e-07 0 7.15174e-07 0 0)
(7.34601e-07 9.04924e-07 0 1.12203e-06 0 0)
(9.98823e-11 -2.01058e-10 0 2.11526e-09 0 0)
(8.92845e-09 1.84149e-08 0 3.9069e-08 0 0)
(9.12903e-08 1.06712e-07 0 1.25883e-07 0 0)
(3.28327e-07 2.84581e-07 0 2.48498e-07 0 0)
(7.61922e-07 5.43118e-07 0 3.89978e-07 0 0)
(8.6199e-11 -5.26505e-11 0 2.27503e-10 0 0)
(8.67456e-09 5.83984e-09 0 4.07054e-09 0 0)
(9.2294e-08 3.50603e-08 0 1.34539e-08 0 0)
(3.33179e-07 9.39297e-08 0 2.6685e-08 0 0)
(7.7474e-07 1.79639e-07 0 4.19618e-08 0 0)
(8.62038e-11 3.93417e-11 0 2.87822e-10 0 0)
(8.6763e-09 -6.03334e-09 0 4.3238e-09 0 0)
(9.22911e-08 -3.56385e-08 0 1.39063e-08 0 0)
(3.33169e-07 -9.48488e-08 0 2.72417e-08 0 0)
(7.74712e-07 -1.80775e-07 0 4.25531e-08 0 0)
(9.96052e-11 1.90799e-10 0 2.2972e-09 0 0)
(8.92457e-09 -1.86083e-08 0 3.98506e-08 0 0)
(9.12771e-08 -1.07282e-07 0 1.2726e-07 0 0)
(3.28291e-07 -2.8548e-07 0 2.50186e-07 0 0)
(7.61833e-07 -5.44215e-07 0 3.91767e-07 0 0)
(9.24997e-11 3.37387e-10 0 6.56532e-09 0 0)
(8.81399e-09 -3.14076e-08 0 1.14594e-07 0 0)
(8.85791e-08 -1.79074e-07 0 3.64975e-07 0 0)
(3.17421e-07 -4.75779e-07 0 7.18011e-07 0 0)
(7.34453e-07 -9.05934e-07 0 1.12502e-06 0 0)
(7.6086e-11 4.45918e-10 0 1.32877e-08 0 0)
(8.50958e-09 -4.39792e-08 0 2.31776e-07 0 0)
(8.42623e-08 -2.48271e-07 0 7.36367e-07 0 0)
(3.0055e-07 -6.57911e-07 0 1.44815e-06 0 0)
(6.92614e-07 -1.25025e-06 0 2.26916e-06 0 0)
(5.62827e-11 5.07021e-10 0 2.26416e-08 0 0)
(8.08308e-09 -5.59487e-08 0 3.92971e-07 0 0)
(7.85681e-08 -3.12037e-07 0 1.24524e-06 0 0)
(2.78395e-07 -8.2375e-07 0 2.44706e-06 0 0)
(6.3802e-07 -1.56093e-06 0 3.83359e-06 0 0)
(3.67477e-11 5.04138e-10 0 3.47562e-08 0 0)
(7.58147e-09 -6.70025e-08 0 5.97939e-07 0 0)
(7.18417e-08 -3.67829e-07 0 1.88885e-06 0 0)
(2.5222e-07 -9.65954e-07 0 3.70804e-06 0 0)
(5.73842e-07 -1.82346e-06 0 5.80692e-06 0 0)
(2.09968e-11 4.18359e-10 0 4.97241e-08 0 0)
(7.03823e-09 -7.68668e-08 0 8.44532e-07 0 0)
(6.44707e-08 -4.13633e-07 0 2.65772e-06 0 0)
(2.23642e-07 -1.07898e-06 0 5.21078e-06 0 0)
(5.04374e-07 -2.0275e-06 0 8.15654e-06 0 0)
(1.21448e-11 2.35115e-10 0 6.76095e-08 0 0)
(6.46706e-09 -8.52377e-08 0 1.12877e-06 0 0)
(5.68021e-08 -4.47968e-07 0 3.5364e-06 0 0)
(1.94335e-07 -1.15968e-06 0 6.92399e-06 0 0)
(4.34223e-07 -2.16862e-06 0 1.08335e-05 0 0)
(1.19191e-11 -4.82717e-11 0 8.84239e-08 0 0)
(5.85351e-09 -9.16459e-08 0 1.44494e-06 0 0)
(4.90662e-08 -4.69629e-07 0 4.50522e-06 0 0)
(1.65695e-07 -1.20721e-06 0 8.81089e-06 0 0)
(3.67346e-07 -2.24839e-06 0 1.37838e-05 0 0)
(1.9882e-11 -4.0621e-10 0 1.12e-07 0 0)
(5.13111e-09 -9.50644e-08 0 1.78528e-06 0 0)
(4.12152e-08 -4.7641e-07 0 5.54155e-06 0 0)
(1.38306e-07 -1.22043e-06 0 1.08338e-05 0 0)
(3.06219e-07 -2.27133e-06 0 1.69567e-05 0 0)
(3.2586e-11 -7.61423e-10 0 1.37668e-07 0 0)
(4.18775e-09 -9.34429e-08 0 2.1383e-06 0 0)
(3.28899e-08 -4.63161e-07 0 6.61971e-06 0 0)
(1.11717e-07 -1.19401e-06 0 1.29624e-05 0 0)
(2.51182e-07 -2.23976e-06 0 2.03303e-05 0 0)
(4.40881e-11 -1.00647e-09 0 1.637e-07 0 0)
(2.99589e-09 -8.43172e-08 0 2.48517e-06 0 0)
(2.39891e-08 -4.22684e-07 0 7.70484e-06 0 0)
(8.54323e-08 -1.11765e-06 0 1.51725e-05 0 0)
(2.0151e-07 -2.15067e-06 0 2.3928e-05 0 0)
(5.19248e-11 -1.10696e-09 0 1.8682e-07 0 0)
(1.87905e-09 -6.89284e-08 0 2.79535e-06 0 0)
(1.59572e-08 -3.56591e-07 0 8.73812e-06 0 0)
(6.14263e-08 -9.88586e-07 0 1.7427e-05 0 0)
(1.5815e-07 -2.00483e-06 0 2.78453e-05 0 0)
(6.24494e-11 -1.02693e-09 0 2.04745e-07 0 0)
(1.92877e-09 -6.50897e-08 0 3.03999e-06 0 0)
(1.3475e-08 -3.11608e-07 0 9.61394e-06 0 0)
(4.74051e-08 -8.56287e-07 0 1.95757e-05 0 0)
(1.28564e-07 -1.84888e-06 0 3.21601e-05 0 0)
(4.4959e-10 -8.32322e-09 0 2.62451e-07 0 0)
(1.04127e-08 -1.49675e-07 0 3.53404e-06 0 0)
(3.37613e-08 -4.90152e-07 0 1.09973e-05 0 0)
(6.24981e-08 -9.75356e-07 0 2.24898e-05 0 0)
(1.53766e-07 -2.10897e-06 0 3.74812e-05 0 0)
(1.77668e-06 1.19697e-05 0 8.7765e-05 0 0)
(4.15454e-06 2.18042e-05 0 0.000121665 0 0)
(7.25467e-06 3.29904e-05 0 0.00015783 0 0)
(1.05079e-05 4.41621e-05 -4.69068e-25 0.000194376 -5.36986e-25 2.61792e-42)
(1.38117e-05 5.50337e-05 0 0.000229061 0 0)
(1.70776e-05 6.52638e-05 0 0.000260098 0 0)
(2.0191e-05 7.44401e-05 5.14548e-23 0.00028593 9.56308e-23 1.0003e-38)
(2.3064e-05 8.21931e-05 -5.72368e-23 0.000305081 -1.09414e-22 1.01804e-38)
(2.56194e-05 8.82153e-05 -4.94118e-25 0.000316241 -9.85365e-25 5.6811e-43)
(2.80011e-05 9.27051e-05 -3.51519e-23 0.000319385 -7.27645e-23 2.12647e-39)
(3.00556e-05 9.51059e-05 -7.6108e-26 0.000312704 -9.265e-25 4.72618e-42)
(3.18904e-05 9.54354e-05 1.02021e-25 0.000295969 -3.4103e-25 5.57162e-42)
(3.35422e-05 9.38515e-05 2.14367e-23 0.000270798 4.46084e-23 5.02001e-40)
(3.50809e-05 9.04892e-05 2.2142e-23 0.000238903 4.60713e-23 4.02187e-40)
(3.65756e-05 8.54987e-05 5.33332e-23 0.000202652 1.10086e-22 1.75615e-39)
(3.80928e-05 7.90161e-05 -5.50516e-23 0.000164794 -1.12461e-22 1.75633e-39)
(3.97058e-05 7.11578e-05 2.25296e-23 0.000128135 4.51629e-23 2.26758e-40)
(4.14886e-05 6.20103e-05 2.12147e-23 9.51723e-05 4.14569e-23 1.55365e-40)
(4.35212e-05 5.16694e-05 -1.49258e-24 6.78779e-05 -2.89328e-24 5.86034e-42)
(4.59013e-05 4.0262e-05 -1.58359e-24 4.7485e-05 -2.77021e-24 5.05674e-42)
(4.87126e-05 2.79276e-05 -4.26268e-23 3.43951e-05 -7.23935e-23 5.34143e-40)
(5.19565e-05 1.48174e-05 6.51333e-25 2.82518e-05 9.92198e-25 1.03407e-43)
(5.55847e-05 1.23244e-06 -7.73479e-23 2.83389e-05 -1.07778e-22 1.28352e-39)
(5.95358e-05 -1.24861e-05 7.85649e-23 3.34559e-05 9.32824e-23 1.26089e-39)
(6.37014e-05 -2.59704e-05 0 4.21891e-05 0 0)
(6.79309e-05 -3.885e-05 0 5.30863e-05 0 0)
(7.20516e-05 -5.07774e-05 1.21196e-24 6.48032e-05 6.00265e-25 1.89916e-43)
(7.59199e-05 -6.1425e-05 0 7.6185e-05 0 0)
(7.95171e-05 -7.04574e-05 0 8.62471e-05 0 0)
(8.24461e-05 -7.75564e-05 0 9.40639e-05 0 0)
(2.7835e-06 1.64504e-05 0 0.000104596 0 0)
(5.44485e-06 2.68877e-05 0 0.000140561 0 0)
(8.46487e-06 3.76067e-05 0 0.000175588 0 0)
(1.16034e-05 4.81538e-05 4.64859e-25 0.000209295 5.34234e-25 2.328e-42)
(1.4828e-05 5.83997e-05 0 0.000240384 0 0)
(1.80354e-05 6.79901e-05 0 0.000267545 0 0)
(2.11248e-05 7.65585e-05 -4.88871e-23 0.000289477 -8.62801e-23 8.63227e-39)
(2.40226e-05 8.37862e-05 5.52083e-23 0.000304939 9.95399e-23 9.04131e-39)
(2.67018e-05 8.94956e-05 4.76153e-25 0.000313013 8.99912e-25 5.00567e-43)
(2.92469e-05 9.37812e-05 0 0.000313731 0 0)
(3.15483e-05 9.61286e-05 0 0.000305228 0 0)
(3.37147e-05 9.6652e-05 3.81329e-23 0.000287998 7.42015e-23 1.53465e-39)
(3.57315e-05 9.53964e-05 -4.04944e-23 0.000263416 -7.8349e-23 1.54432e-39)
(3.76479e-05 9.24557e-05 0 0.000233036 0 0)
(3.94981e-05 8.79217e-05 1.50263e-22 0.00019893 2.90785e-22 1.29789e-38)
(4.13141e-05 8.18827e-05 -1.55465e-22 0.000163454 -2.98941e-22 1.29695e-38)
(4.31392e-05 7.4426e-05 0 0.000128993 0 0)
(4.50302e-05 6.56421e-05 -4.40628e-23 9.77099e-05 -8.1885e-23 6.80622e-40)
(4.70579e-05 5.56346e-05 4.4946e-23 7.1323e-05 8.13956e-23 6.87375e-40)
(4.93036e-05 4.45369e-05 0 5.09741e-05 0 0)
(5.18296e-05 3.24875e-05 0 3.7134e-05 0 0)
(5.46989e-05 1.96926e-05 -6.37918e-25 2.96917e-05 -9.69521e-25 9.10113e-44)
(5.79154e-05 6.41906e-06 7.92965e-23 2.80999e-05 1.05812e-22 1.16979e-39)
(6.14169e-05 -7.03932e-06 -8.14486e-23 3.1426e-05 -9.40379e-23 1.18978e-39)
(6.51316e-05 -2.03494e-05 0 3.85046e-05 0 0)
(6.89463e-05 -3.31783e-05 0 4.80796e-05 0 0)
(7.27141e-05 -4.52157e-05 -1.15183e-24 5.89358e-05 -6.99726e-25 1.68562e-43)
(7.62846e-05 -5.6184e-05 0 6.99919e-05 0 0)
(7.96382e-05 -6.58356e-05 0 8.03447e-05 0 0)
(8.26165e-05 -7.4143e-05 0 8.94595e-05 0 0)
(3.87634e-06 2.06787e-05 0 0.000117678 0 0)
(6.4687e-06 3.0501e-05 0 0.00015181 0 0)
(9.43813e-06 4.07243e-05 0 0.000184486 0 0)
(1.26108e-05 5.09762e-05 -3.1594e-23 0.000215739 -3.79528e-23 9.42664e-39)
(1.59009e-05 6.09646e-05 3.71803e-23 0.000244343 5.0057e-23 9.6499e-39)
(1.92066e-05 7.03228e-05 -4.53409e-23 0.000269012 -6.9671e-23 9.61802e-39)
(2.2459e-05 7.87386e-05 5.14649e-23 0.000288511 8.1559e-23 9.79979e-39)
(2.55984e-05 8.59221e-05 -9.28762e-25 0.000301722 -1.56671e-24 2.26235e-42)
(2.86568e-05 9.18108e-05 0 0.000308032 0 0)
(3.16387e-05 9.63288e-05 0 0.000307292 0 0)
(3.45067e-05 9.90665e-05 1.2133e-24 0.000297868 2.06527e-24 1.84053e-42)
(3.73194e-05 0.000100104 0 0.00028062 0 0)
(4.00303e-05 9.94032e-05 0 0.00025672 0 0)
(4.26508e-05 9.69992e-05 3.71261e-25 0.000227624 6.3496e-25 8.66423e-44)
(4.51661e-05 9.29189e-05 2.77064e-22 0.000195209 4.75621e-22 3.69997e-38)
(4.75608e-05 8.72034e-05 -2.87787e-22 0.000161576 -4.90949e-22 3.69991e-38)
(4.9835e-05 7.99138e-05 -4.05137e-25 0.000128842 -6.86342e-25 5.94583e-44)
(5.20146e-05 7.11393e-05 0 9.89233e-05 0 0)
(5.41564e-05 6.10055e-05 0 7.33693e-05 0 0)
(5.63433e-05 4.96798e-05 -1.60082e-24 5.32397e-05 -2.50285e-24 6.07549e-43)
(5.86716e-05 3.73744e-05 0 3.90616e-05 0 0)
(6.12017e-05 2.43343e-05 0 3.08681e-05 0 0)
(6.39612e-05 1.08139e-05 1.4725e-24 2.81857e-05 1.84649e-24 3.58631e-43)
(6.69544e-05 -2.86826e-06 9.20562e-23 3.02619e-05 1.00097e-22 1.20255e-39)
(7.01381e-05 -1.63907e-05 -9.24882e-23 3.61015e-05 -8.51858e-23 1.18025e-39)
(7.34345e-05 -2.94384e-05 9.10328e-23 4.45959e-05 6.79415e-23 9.59208e-40)
(7.67378e-05 -4.17194e-05 -9.19842e-23 5.46359e-05 -5.18079e-23 9.34649e-40)
(7.99208e-05 -5.29718e-05 0 6.51911e-05 0 0)
(8.28811e-05 -6.29613e-05 0 7.53819e-05 0 0)
(8.50929e-05 -7.17519e-05 0 8.49931e-05 0 0)
(4.96572e-06 2.46783e-05 0 0.000129837 0 0)
(7.5157e-06 3.40589e-05 4.34447e-23 0.000162225 2.28517e-23 4.39382e-38)
(1.05617e-05 4.41042e-05 -2.69393e-23 0.000192856 -2.07696e-23 1.16189e-38)
(1.38692e-05 5.42459e-05 -6.89535e-23 0.000221803 -7.74943e-23 4.55571e-38)
(1.73302e-05 6.4121e-05 8.27763e-23 0.000247907 1.07071e-22 4.48831e-38)
(2.08765e-05 7.34209e-05 -4.76653e-23 0.000269993 -6.57941e-23 1.08849e-38)
(2.44699e-05 8.18839e-05 0 0.000286964 0 0)
(2.80593e-05 8.92349e-05 -1.94661e-24 0.000297865 -2.85431e-24 9.58621e-42)
(3.17402e-05 9.5523e-05 0 0.00030243 0 0)
(3.54266e-05 0.000100455 0 0.000300138 0 0)
(3.91587e-05 0.000103762 -4.70136e-23 0.000289878 -7.14282e-23 2.22682e-39)
(4.29199e-05 0.000105434 4.83961e-23 0.000272649 7.20136e-23 1.98536e-39)
(4.66427e-05 0.000105383 0 0.000249473 0 0)
(5.02838e-05 0.000103574 -4.3717e-25 0.000221709 -6.54706e-25 9.54994e-44)
(5.3766e-05 9.99744e-05 4.36343e-22 0.000191041 6.53239e-22 7.43757e-38)
(5.7012e-05 9.45766e-05 -4.54992e-22 0.000159322 -6.76562e-22 7.43734e-38)
(5.99683e-05 8.74153e-05 4.80237e-25 0.000128403 7.11846e-25 6.55359e-44)
(6.26228e-05 7.85772e-05 0 9.99658e-05 0 0)
(6.50146e-05 6.82079e-05 6.08626e-23 7.53884e-05 8.73255e-23 7.53204e-40)
(6.7229e-05 5.65115e-05 -5.72493e-23 5.56512e-05 -8.00459e-23 6.59124e-40)
(6.93828e-05 4.37442e-05 -1.86244e-24 4.12899e-05 -2.46858e-24 5.87223e-43)
(7.15717e-05 3.01822e-05 0 3.23888e-05 0 0)
(7.38635e-05 1.61381e-05 3.55067e-24 2.86623e-05 4.01249e-24 1.71996e-42)
(7.63039e-05 1.94313e-06 0 2.95024e-05 0 0)
(7.88903e-05 -1.20746e-05 -1.05251e-22 3.4075e-05 -9.19222e-23 1.19451e-39)
(8.15791e-05 -2.56041e-05 2.04292e-22 4.14179e-05 1.47779e-22 4.27087e-39)
(8.43062e-05 -3.83634e-05 -1.9945e-22 5.05346e-05 -1.12948e-22 3.71923e-39)
(8.69944e-05 -5.01016e-05 -9.55188e-23 6.04614e-05 -3.92737e-23 7.23231e-40)
(8.94989e-05 -6.05938e-05 1.96997e-22 7.0349e-05 4.93758e-23 3.1189e-39)
(9.06529e-05 -6.99868e-05 0 8.02819e-05 0 0)
(6.17919e-06 2.88578e-05 0 0.000141594 0 0)
(8.81135e-06 3.80813e-05 -4.70112e-23 0.000172118 -2.6399e-23 5.05462e-38)
(1.20335e-05 4.80786e-05 5.75606e-23 0.000200515 4.78365e-23 4.88583e-38)
(1.55673e-05 5.81771e-05 0 0.000226919 0 0)
(1.93238e-05 6.80403e-05 0 0.000250307 0 0)
(2.32737e-05 7.74177e-05 -1.59019e-24 0.000269637 -1.93822e-24 1.11631e-41)
(2.74009e-05 8.60714e-05 0 0.000283969 0 0)
(3.16702e-05 9.37447e-05 2.21604e-24 0.000292523 2.93201e-24 1.05288e-41)
(3.6213e-05 0.000100531 -4.00246e-23 0.000295287 -5.25911e-23 2.4533e-39)
(4.08987e-05 0.000105988 4.51966e-23 0.000291434 5.80134e-23 2.48911e-39)
(4.5804e-05 0.000109948 5.21452e-23 0.000280467 6.78962e-23 2.27833e-39)
(5.08415e-05 0.000112307 -5.57454e-23 0.000263351 -7.07193e-23 2.15989e-39)
(5.59177e-05 0.000112942 -1.87524e-24 0.000241033 -2.38391e-24 1.83588e-42)
(6.09193e-05 0.000111755 1.00513e-24 0.000214756 1.28178e-24 4.15592e-43)
(6.56919e-05 0.000108658 6.3677e-22 0.000186011 8.20936e-22 1.26066e-37)
(7.00813e-05 0.000103598 -6.66052e-22 0.000156399 -8.54048e-22 1.26061e-37)
(7.39669e-05 9.65826e-05 -1.13159e-24 0.000127504 -1.45493e-24 2.91914e-43)
(7.72899e-05 8.76886e-05 2.28951e-24 0.000100763 2.9274e-24 1.02137e-42)
(8.0068e-05 7.70715e-05 -7.26785e-23 7.73742e-05 -9.14643e-23 8.44254e-40)
(8.23901e-05 6.49608e-05 7.05488e-23 5.82191e-05 8.70882e-23 7.8667e-40)
(8.4395e-05 5.16471e-05 7.25191e-23 4.38249e-05 8.553e-23 6.66152e-40)
(8.62262e-05 3.7452e-05 -6.968e-23 3.43481e-05 -7.8316e-23 6.1645e-40)
(8.8006e-05 2.27286e-05 -4.16101e-24 2.96307e-05 -4.33921e-24 1.88903e-42)
(8.98255e-05 7.83557e-06 0 2.92236e-05 0 0)
(9.17273e-05 -6.88113e-06 3.98318e-24 3.24588e-05 3.23399e-24 1.44917e-42)
(9.37045e-05 -2.11021e-05 0 3.85282e-05 0 0)
(9.57309e-05 -3.45423e-05 0 4.65597e-05 0 0)
(9.77835e-05 -4.69509e-05 2.27603e-22 5.5677e-05 9.65704e-23 3.65199e-39)
(9.97137e-05 -5.81116e-05 -2.19578e-22 6.50707e-05 -6.26281e-23 3.33569e-39)
(9.96032e-05 -6.83396e-05 0 7.51204e-05 0 0)
(7.66214e-06 3.34728e-05 -4.02303e-23 0.000152562 -1.69096e-24 4.98029e-38)
(1.05149e-05 4.27366e-05 7.37629e-23 0.000180812 4.03783e-23 1.22671e-37)
(1.40197e-05 5.27587e-05 -3.0639e-23 0.000206693 -2.38018e-23 1.32209e-38)
(1.7904e-05 6.2891e-05 0 0.000230341 0 0)
(2.21147e-05 7.28461e-05 -4.7366e-23 0.000250873 -4.97967e-23 1.24404e-38)
(2.66568e-05 8.24073e-05 5.48564e-23 0.000267363 5.82424e-23 1.19696e-38)
(3.15323e-05 9.13444e-05 -6.53208e-23 0.000279025 -7.25399e-23 1.09951e-38)
(3.674e-05 9.94407e-05 7.81097e-23 0.00028528 8.3927e-23 1.19538e-38)
(4.24166e-05 0.00010676 0 0.000286235 0 0)
(4.84244e-05 0.000112783 3.1854e-24 0.000280924 3.39827e-24 1.01473e-41)
(5.48393e-05 0.000117407 -5.81332e-23 0.00026941 -6.3532e-23 2.33211e-39)
(6.15162e-05 0.000120454 3.22537e-23 0.000252562 3.34879e-23 6.43434e-40)
(6.83176e-05 0.00012177 4.46993e-24 0.000231265 4.03295e-24 1.5913e-41)
(7.50459e-05 0.000121202 3.6743e-23 0.000206644 3.96348e-23 4.63126e-40)
(8.1454e-05 0.000118616 8.83398e-22 0.000179996 9.76232e-22 1.93339e-37)
(8.72949e-05 0.000113922 -9.26013e-22 0.000152676 -1.02145e-21 1.93319e-37)
(9.23675e-05 0.000107094 4.41226e-23 0.000126003 4.92398e-23 3.30005e-40)
(9.65574e-05 9.81942e-05 -5.83529e-24 0.000101173 -6.51891e-24 1.06418e-41)
(9.98568e-05 8.73756e-05 4.28649e-23 7.91951e-05 4.71578e-23 2.04879e-40)
(0.00010236 7.48804e-05 -8.6756e-23 6.08405e-05 -9.46001e-23 9.32246e-40)
(0.000104236 6.10238e-05 -5.31835e-24 4.66113e-05 -5.59088e-24 2.96035e-42)
(0.000105682 4.61652e-05 0 3.67224e-05 0 0)
(0.000106884 3.06919e-05 1.59026e-22 3.11218e-05 1.49246e-22 2.08931e-39)
(0.000107991 1.4994e-05 -1.61233e-22 2.95092e-05 -1.39896e-22 2.17559e-39)
(0.000109099 -5.5732e-07 1.53212e-22 3.13799e-05 1.17685e-22 1.66538e-39)
(0.000110245 -1.56251e-05 -1.4583e-22 3.60822e-05 -9.76647e-23 1.52427e-39)
(0.000111439 -2.99097e-05 -8.83677e-24 4.28791e-05 -4.80043e-24 4.96158e-42)
(0.000112711 -4.31466e-05 -1.3349e-22 5.09969e-05 -5.81938e-23 1.03613e-39)
(0.000113929 -5.51175e-05 3.86609e-22 5.96832e-05 1.19103e-22 8.1948e-39)
(0.000112347 -6.64048e-05 -2.69257e-22 6.95587e-05 -4.64992e-23 3.92441e-39)
(9.57044e-06 3.86884e-05 2.03091e-23 0.000162236 7.60138e-25 1.26267e-38)
(1.27999e-05 4.81397e-05 -2.72342e-23 0.000187808 -1.28096e-23 1.61202e-38)
(1.67227e-05 5.82595e-05 -3.52949e-23 0.000210953 -2.44826e-23 1.56352e-38)
(2.11175e-05 6.85031e-05 4.42741e-23 0.000231709 3.42712e-23 1.60592e-38)
(2.59733e-05 7.86282e-05 -5.19619e-23 0.000249288 -4.49895e-23 1.34713e-38)
(3.1326e-05 8.84346e-05 6.67641e-23 0.000262902 5.75012e-23 1.55736e-38)
(3.71934e-05 9.76906e-05 2.23927e-24 0.000271907 1.7675e-24 1.26468e-41)
(4.36464e-05 0.000106264 0 0.000275964 0 0)
(5.07578e-05 0.000114076 -5.15227e-23 0.000275126 -4.622e-23 2.90216e-39)
(5.84474e-05 0.000120651 -3.85524e-24 0.000268541 -5.24538e-24 2.08891e-42)
(6.67431e-05 0.000125895 -4.24113e-24 0.000256669 -5.65798e-24 1.61707e-42)
(7.54545e-05 0.000129587 7.67046e-23 0.000240265 6.76558e-23 2.73566e-39)
(8.43791e-05 0.000131544 3.8222e-23 0.000220162 3.5156e-23 4.70705e-40)
(9.32199e-05 0.000131575 -6.60746e-23 0.000197363 -6.07903e-23 1.17461e-39)
(0.000101621 0.000129509 1.19935e-21 0.000172974 1.13603e-21 2.881e-37)
(0.000109228 0.000125217 -1.20982e-21 0.000148111 -1.15062e-21 2.6612e-37)
(0.000115747 0.000118647 -7.55832e-23 0.000123838 -7.3306e-23 8.02574e-40)
(0.000121 0.000109832 5.78479e-23 0.000101115 5.64669e-23 4.27768e-40)
(0.00012495 9.89139e-05 1.02514e-22 8.07629e-05 9.98809e-23 1.04621e-39)
(0.000127701 8.61314e-05 5.45653e-24 6.34344e-05 4.63766e-24 1.13657e-42)
(0.000129458 7.18111e-05 5.19035e-24 4.95903e-05 4.10658e-24 1.0649e-42)
(0.00013048 5.6337e-05 -9.87544e-23 3.94809e-05 -9.01929e-23 7.74426e-40)
(0.000131025 4.01246e-05 0 3.3145e-05 0 0)
(0.000131314 2.35941e-05 -5.91688e-24 3.04153e-05 -4.61701e-24 2.19165e-42)
(0.000131504 7.14461e-06 1.6537e-22 3.09411e-05 1.19187e-22 1.54738e-39)
(0.000131682 -8.86354e-06 -1.72524e-22 3.42236e-05 -1.10764e-22 1.72244e-39)
(0.000131904 -2.41094e-05 1.62803e-22 3.96697e-05 8.88631e-23 1.33366e-39)
(0.000132252 -3.82997e-05 -1.49765e-22 4.66154e-05 -6.70132e-23 1.14441e-39)
(0.000132618 -5.12044e-05 -1.44749e-22 5.43849e-05 -4.76699e-23 9.10366e-40)
(0.000129367 -6.37686e-05 1.61579e-22 6.37592e-05 3.44305e-23 1.17158e-39)
(1.20965e-05 4.46365e-05 0 0.000170146 0 0)
(1.58851e-05 5.43811e-05 -2.58874e-23 0.000192725 -9.03213e-24 1.31942e-38)
(2.0392e-05 6.46542e-05 4.05384e-23 0.000212986 2.00664e-23 1.96049e-38)
(2.54912e-05 7.506e-05 -4.90643e-23 0.000230751 -3.0132e-23 1.67839e-38)
(3.12165e-05 8.53894e-05 5.72839e-23 0.000245323 3.59239e-23 1.52705e-38)
(3.76339e-05 9.54504e-05 -6.61664e-23 0.00025606 -4.50408e-23 1.25289e-38)
(4.47775e-05 0.000105008 7.88056e-23 0.000262462 5.12122e-23 1.28691e-38)
(5.28212e-05 0.000114044 6.15651e-24 0.000264454 4.00635e-24 5.35543e-41)
(6.17119e-05 0.000122259 3.60798e-24 0.000261891 2.41774e-24 1.28012e-41)
(7.14782e-05 0.00012932 4.16373e-24 0.000254274 2.86229e-24 1.21233e-41)
(8.20597e-05 0.000135096 4.82599e-24 0.000242245 3.50983e-24 1.1397e-41)
(9.32274e-05 0.000139359 -2.69051e-24 0.000226478 -2.00037e-24 2.64236e-42)
(0.000104691 0.0001419 4.98517e-23 0.000207748 3.83773e-23 6.68007e-40)
(0.00011604 0.000142505 -2.53565e-23 0.000186936 -1.91061e-23 1.6394e-40)
(0.000126793 0.000140974 1.48784e-21 0.000164956 1.21258e-21 3.62967e-37)
(0.000136475 0.00013715 -1.61916e-21 0.000142697 -1.33532e-21 3.89843e-37)
(0.000144689 0.000130941 -2.91846e-23 0.000120982 -2.50004e-23 8.30861e-41)
(0.000151188 0.00012235 5.24232e-23 0.000100545 4.51377e-23 2.89784e-40)
(0.000155906 0.000111488 -3.77095e-24 8.20221e-05 -3.26993e-24 1.20541e-42)
(0.000158957 9.85799e-05 -1.49946e-23 6.59418e-05 -1.29609e-23 1.6755e-41)
(0.000160593 8.39457e-05 -7.4279e-24 5.27099e-05 -6.30755e-24 3.65183e-42)
(0.000161141 6.79798e-05 -7.27762e-24 4.25921e-05 -5.99326e-24 3.16931e-42)
(0.000160941 5.11175e-05 -1.41692e-23 3.56993e-05 -1.11368e-23 1.09956e-41)
(0.000160294 3.38041e-05 2.29803e-22 3.19795e-05 1.6984e-22 2.58486e-39)
(0.000159431 1.64662e-05 -2.24494e-22 3.12224e-05 -1.5406e-22 2.50945e-39)
(0.000158497 -5.09709e-07 2.00398e-22 3.30776e-05 1.22505e-22 1.72354e-39)
(0.000157599 -1.67768e-05 -1.83379e-22 3.70946e-05 -9.86272e-23 1.47963e-39)
(0.000156877 -3.20053e-05 1.61579e-22 4.27295e-05 7.27948e-23 9.95761e-40)
(0.000156248 -4.59392e-05 -1.91567e-22 4.93945e-05 -6.99212e-23 1.42681e-39)
(0.000151147 -5.99743e-05 0 5.79428e-05 0 0)
(1.54803e-05 5.14006e-05 0 0.000175868 0 0)
(2.00438e-05 6.14938e-05 -1.81419e-24 0.000195211 -8.19301e-26 6.47087e-41)
(2.53339e-05 7.19424e-05 3.48325e-23 0.000212492 1.07106e-23 1.24019e-38)
(3.13653e-05 8.25146e-05 2.23683e-25 0.000227207 1.41896e-24 7.02035e-42)
(3.82213e-05 9.30295e-05 -6.37612e-23 0.000238769 -2.59307e-23 1.65952e-38)
(4.5998e-05 0.000103301 -5.00094e-24 0.000246682 -2.40423e-24 6.23868e-41)
(5.47609e-05 0.000113109 -5.8217e-24 0.000250603 -2.52893e-24 6.06001e-41)
(6.4735e-05 0.000122482 4.93491e-23 0.000250664 2.48607e-23 2.76555e-39)
(7.58156e-05 0.000130992 -7.02179e-23 0.00024654 -3.53013e-23 4.17469e-39)
(8.80817e-05 0.000138428 -1.06821e-25 0.000238159 -1.8515e-25 2.45908e-46)
(0.000101384 0.000144623 4.34511e-23 0.000226191 2.54083e-23 7.64928e-40)
(0.000115447 0.00014936 -4.83734e-23 0.000211266 -2.83709e-23 7.74137e-40)
(0.000129873 0.000152425 2.33724e-23 0.000194092 1.50868e-23 1.23176e-40)
(0.000144123 0.000153588 -2.88736e-23 0.000175419 -1.89072e-23 1.63035e-40)
(0.000157575 0.000152632 1.8952e-21 0.000155982 1.33318e-21 4.96109e-37)
(0.000169622 0.000149368 -1.99005e-21 0.000136454 -1.43107e-21 4.96112e-37)
(0.000179758 0.000143667 -3.3664e-23 0.000117432 -2.52872e-23 1.03796e-40)
(0.000187661 0.000135486 3.87681e-23 9.9437e-05 2.97019e-23 1.29683e-40)
(0.00019324 0.000124894 -6.51396e-23 8.29287e-05 -5.05992e-23 2.79245e-40)
(0.000196625 0.000112081 8.70481e-23 6.83084e-05 6.81679e-23 4.86292e-40)
(0.000198119 9.73475e-05 -8.35727e-26 5.59165e-05 -3.49691e-26 1.62092e-46)
(0.000198128 8.10826e-05 -1.34488e-22 4.60156e-05 -1.01433e-22 8.41789e-40)
(0.000197083 6.37305e-05 1.48299e-22 3.8769e-05 1.09174e-22 1.03582e-39)
(0.000195375 4.57559e-05 1.60674e-23 3.42212e-05 1.10791e-23 1.05701e-41)
(0.000193316 2.76105e-05 1.52213e-23 3.22857e-05 9.93904e-24 9.0457e-42)
(0.000191118 9.70621e-06 -2.35005e-22 3.27523e-05 -1.38348e-22 1.92117e-39)
(0.000188949 -7.57822e-06 3.28602e-24 3.53053e-05 2.60668e-24 7.95971e-42)
(0.000187014 -2.38756e-05 2.46378e-22 3.95307e-05 1.13132e-22 2.03581e-39)
(0.000185249 -3.88957e-05 0 4.49381e-05 0 0)
(0.000178146 -5.45497e-05 0 5.23601e-05 0 0)
(2.00212e-05 5.89975e-05 0 0.000179003 0 0)
(2.56125e-05 6.94309e-05 3.47564e-23 0.000194948 -3.23962e-24 1.99597e-38)
(3.19165e-05 8.00243e-05 3.38946e-25 0.000209198 1.44158e-24 6.49334e-42)
(3.91417e-05 9.0711e-05 1.98041e-25 0.000220864 1.38307e-24 7.80115e-42)
(4.74275e-05 0.000101337 -1.37469e-22 0.000229472 -2.70273e-23 6.63286e-38)
(5.68965e-05 0.00011172 8.73388e-23 0.000234679 1.96701e-23 1.77861e-38)
(6.76598e-05 0.000121674 6.71635e-24 0.000236311 2.02782e-24 6.61997e-41)
(7.99496e-05 0.000131213 0 0.000234598 0 0)
(9.36602e-05 0.000139871 -6.97058e-23 0.000229157 -2.63865e-23 3.32653e-39)
(0.000108867 0.00014753 7.98072e-23 0.000220292 3.04464e-23 3.40533e-39)
(0.000125344 0.000154013 -4.87509e-23 0.000208626 -2.22454e-23 8.40058e-40)
(0.000142746 0.000159125 -3.74825e-25 0.000194755 -1.69971e-24 1.84816e-42)
(0.000160552 0.000162659 5.97352e-23 0.00017931 3.0619e-23 7.85409e-40)
(0.000178077 0.000164386 -2.02491e-24 0.000162915 -1.1396e-24 6.6623e-43)
(0.000194551 0.000164075 2.30925e-21 0.00014613 1.40908e-21 6.34543e-37)
(0.000209221 0.000161507 -2.42461e-21 0.00012943 -1.53082e-21 6.3512e-37)
(0.000221468 0.000156505 2.38794e-24 0.000113205 1.58886e-24 4.72705e-43)
(0.000230899 0.000148971 7.8444e-23 9.77815e-05 5.40251e-23 4.00492e-40)
(0.000237397 0.000138915 -1.9757e-27 8.34497e-05 -1.8005e-25 1.87666e-42)
(0.000241117 0.000126476 -9.96342e-23 7.04857e-05 -7.11223e-23 5.33706e-40)
(0.000242424 0.000111916 1.6763e-22 5.9156e-05 1.18711e-22 1.20631e-39)
(0.00024181 9.56072e-05 -1.56037e-22 4.97041e-05 -1.1009e-22 1.04542e-39)
(0.000239805 7.79902e-05 0 4.23263e-05 0 0)
(0.000236901 5.95416e-05 -1.82931e-23 3.71431e-05 -1.20466e-23 1.1547e-41)
(0.000233501 4.07345e-05 2.83908e-22 3.41749e-05 1.74287e-22 2.4429e-39)
(0.000229886 2.20064e-05 -5.66779e-22 3.33367e-05 -3.24196e-22 9.55649e-39)
(0.000226297 3.76989e-06 3.41101e-24 3.44413e-05 2.88805e-24 8.78585e-42)
(0.000223003 -1.3567e-05 -1.2834e-23 3.72043e-05 -4.94923e-24 2.87341e-42)
(0.000219965 -2.96803e-05 2.44554e-22 4.12446e-05 9.76191e-23 1.55058e-39)
(0.000210746 -4.70349e-05 0 4.72843e-05 0 0)
(2.60839e-05 6.73509e-05 2.97394e-24 0.000179204 -3.12441e-24 3.18421e-40)
(3.29927e-05 7.80398e-05 0 0.000191678 0 0)
(4.0575e-05 8.8692e-05 3.06375e-24 0.000202899 -4.81376e-25 7.62749e-41)
(4.92914e-05 9.93863e-05 -5.78717e-23 0.000211583 5.68655e-24 1.67306e-38)
(5.93395e-05 0.00010999 7.74273e-23 0.000217365 -4.04566e-24 1.97049e-38)
(7.086e-05 0.00012032 -9.65132e-23 0.00022005 -5.06719e-24 1.84959e-38)
(8.40621e-05 0.000130283 1.16098e-22 0.000219652 9.12681e-24 1.90161e-38)
(9.90678e-05 0.000139761 6.98371e-23 0.000216351 1.22981e-23 4.35107e-39)
(0.000115869 0.000148389 -1.73688e-22 0.000209908 -3.78641e-23 1.94475e-38)
(0.000134468 0.000156102 -6.73562e-24 0.000200851 -4.98236e-24 3.2862e-42)
(0.000154576 0.000162735 1.00143e-22 0.000189738 3.12553e-23 3.5326e-39)
(0.00017575 0.000168131 -6.04303e-23 0.000177127 -2.39387e-23 8.55749e-40)
(0.000197332 0.000172101 3.26633e-23 0.00016357 1.29186e-23 2.37409e-40)
(0.000218477 0.00017443 5.63325e-23 0.000149563 2.69055e-23 4.64925e-40)
(0.000238252 0.000174876 2.72795e-21 0.000135507 1.45103e-21 7.82125e-37)
(0.000255757 0.000173184 -2.89985e-21 0.000121698 -1.61855e-21 8.03856e-37)
(0.000270257 0.000169124 6.15215e-23 0.000108341 3.67239e-23 2.68695e-40)
(0.00028129 0.000162526 4.4369e-23 9.55845e-05 2.76951e-23 9.62961e-41)
(0.000288723 0.000153325 -8.94675e-23 8.35645e-05 -5.7559e-23 4.33971e-40)
(0.000292742 0.000141592 2.02971e-22 7.24339e-05 1.32335e-22 1.7033e-39)
(0.000293782 0.000127535 1.11685e-23 6.23784e-05 6.08817e-24 1.79572e-42)
(0.000292434 0.000111492 -3.32363e-22 5.3609e-05 -2.17482e-22 3.7871e-39)
(0.000289337 9.38919e-05 1.74064e-22 4.63359e-05 1.12439e-22 9.91941e-40)
(0.000285091 7.52153e-05 3.37172e-22 4.07351e-05 2.07967e-22 3.07786e-39)
(0.000280194 5.5952e-05 -3.28833e-22 3.69158e-05 -1.95856e-22 2.99317e-39)
(0.00027501 3.65644e-05 3.14155e-22 3.4901e-05 1.73736e-22 2.32854e-39)
(0.000269853 1.74988e-05 -3.2474e-22 3.46251e-05 -1.6701e-22 2.53674e-39)
(0.000265062 -7.9159e-07 1.84477e-23 3.59249e-05 8.43262e-24 7.21281e-42)
(0.00026062 -1.79507e-05 0 3.85328e-05 0 0)
(0.000249215 -3.70087e-05 -3.63367e-23 4.29927e-05 -1.13115e-23 2.34467e-41)
(3.41036e-05 7.62714e-05 -3.3637e-24 0.000176196 3.7762e-24 3.44364e-40)
(4.26553e-05 8.70528e-05 3.93737e-23 0.000185223 -3.04304e-23 2.36012e-38)
(5.18114e-05 9.76186e-05 -5.07007e-23 0.000193489 2.80139e-23 2.16972e-38)
(6.2347e-05 0.000108155 -4.24764e-24 0.000199328 1.34918e-24 8.27312e-41)