/*--------------------------------*- C++ -*----------------------------------*\
  =========                 |
  \\      /  F ield         | OpenFOAM: The Open Source CFD Toolbox
   \\    /   O peration     | Website:  https://openfoam.org
    \\  /    A nd           | Version:  12
     \\/     M anipulation  |
\*---------------------------------------------------------------------------*/
FoamFile
{
    format      ascii;
    class       volScalarField;
    location    "160";
    object      p;
}
// * * * * * * * * * * * * * * * * * * * * * * * * * * * * * * * * * * * * * //

dimensions      [0 2 -2 0 0 0 0];

internalField   nonuniform List<scalar> 
6750
(
0.0216203
0.0215983
0.0215689
0.0214054
0.0203768
0.0231381
0.0231016
0.0229742
0.0227082
0.0223488
0.0249305
0.0248713
0.0247406
0.0245425
0.0243895
0.0268107
0.0267168
0.0265925
0.026452
0.0263751
0.0286775
0.0285396
0.0284054
0.0282928
0.0282541
0.0304511
0.0302647
0.0301097
0.030007
0.0299856
0.032083
0.0318468
0.0316672
0.0315673
0.0315544
0.0335439
0.0332587
0.0330544
0.0329553
0.0329476
0.0348155
0.0344837
0.0342567
0.0341584
0.0341542
0.0358872
0.0355128
0.0352663
0.0351694
0.0351679
0.0367558
0.0363443
0.0360822
0.0359871
0.0359875
0.0374245
0.0369821
0.0367087
0.036616
0.0366175
0.0379025
0.0374354
0.0371559
0.0370656
0.0370673
0.0382042
0.0377181
0.0374388
0.0373497
0.0373507
0.0383424
0.0378507
0.0375766
0.037485
0.0374839
0.0383423
0.0378506
0.0375765
0.0374849
0.0374838
0.0382039
0.0377178
0.0374385
0.0373494
0.0373504
0.0379021
0.037435
0.0371554
0.0370651
0.0370669
0.0374238
0.0369814
0.036708
0.0366153
0.0366168
0.0367549
0.0363434
0.0360813
0.0359862
0.0359866
0.0358861
0.0355117
0.0352652
0.0351683
0.0351668
0.0348141
0.0344823
0.0342554
0.034157
0.0341529
0.0335423
0.0332571
0.0330529
0.0329538
0.032946
0.0320811
0.031845
0.0316654
0.0315655
0.0315526
0.030449
0.0302626
0.0301077
0.030005
0.0299835
0.0286752
0.0285372
0.0284031
0.0282905
0.0282517
0.0268081
0.0267141
0.0265899
0.0264494
0.0263725
0.0249276
0.0248684
0.0247377
0.0245396
0.0243865
0.023135
0.0230985
0.022971
0.022705
0.0223456
0.0216169
0.0215949
0.0215655
0.021402
0.0203732
0.0141963
0.0147891
0.0162577
0.0173428
0.0181293
0.0187543
0.0192439
0.0196095
0.0198791
0.020063
0.0201242
0.020137
0.0200733
0.0199291
0.0197033
0.0193921
0.0189927
0.018508
0.0179411
0.0172917
0.0165529
0.0158357
0.0150793
0.0142995
0.0135169
0.0127445
0.0119917
0.0112728
0.0105977
0.00991654
0.0181067
0.0189025
0.0197023
0.0201031
0.0203319
0.020473
0.0205285
0.0205077
0.0204392
0.0203203
0.0201098
0.0199218
0.0197154
0.0194935
0.0192545
0.0189896
0.0186863
0.0183335
0.0179206
0.0174448
0.0169256
0.0162891
0.0156237
0.0149182
0.0141806
0.0134224
0.0126518
0.0118829
0.0111552
0.0104503
0.0205873
0.0207709
0.0210857
0.0212395
0.0213151
0.021323
0.0212512
0.0211105
0.0209223
0.0206508
0.0203005
0.0199644
0.0196003
0.0192191
0.0188269
0.0184235
0.0180055
0.0175679
0.0171049
0.0166118
0.0160877
0.0155317
0.0149508
0.0143441
0.0137163
0.0130734
0.0124166
0.0117567
0.0111802
0.0107643
0.02203
0.0218057
0.0219344
0.0220171
0.0220259
0.0219582
0.021809
0.0215951
0.0213253
0.0209304
0.0204836
0.0200234
0.019521
0.0189932
0.0184516
0.0179041
0.0173562
0.0168109
0.0162689
0.0157289
0.0151893
0.0146543
0.0141204
0.0135844
0.0130463
0.0125063
0.0119574
0.0114021
0.0109699
0.0108901
0.0231203
0.022748
0.0227944
0.0228063
0.0227317
0.0225767
0.0223414
0.0220415
0.0216747
0.0211642
0.0206213
0.020041
0.0194133
0.0187581
0.0180908
0.0174246
0.0167707
0.0161374
0.0155298
0.0149495
0.0143961
0.0138688
0.0133643
0.0128778
0.0124055
0.0119436
0.0114785
0.0110034
0.0106798
0.010905
0.0240671
0.0236557
0.0236373
0.023569
0.0234085
0.0231669
0.0228454
0.0224559
0.0219818
0.0213662
0.0207233
0.0200273
0.0192828
0.0185117
0.0177324
0.0169622
0.0162162
0.0155062
0.0148402
0.0142217
0.0136509
0.0131251
0.0126398
0.0121889
0.0117663
0.0113655
0.0109678
0.0105588
0.0103258
0.010824
0.0249046
0.0244995
0.0244229
0.0242779
0.0240385
0.0237161
0.0233128
0.0228369
0.0222502
0.0215409
0.0207979
0.0199922
0.0191379
0.0182586
0.0173756
0.0165094
0.0156782
0.0148966
0.0141744
0.0135167
0.012924
0.0123932
0.0119187
0.0114927
0.0111079
0.0107555
0.0104127
0.0100599
0.00990709
0.0106475
0.0256535
0.0252844
0.0251574
0.0249408
0.0246272
0.0242271
0.0237458
0.0231854
0.0224856
0.0216926
0.0208497
0.019939
0.0189807
0.0179997
0.0170196
0.0160635
0.0151523
0.0143025
0.0135257
0.012828
0.0122101
0.0116689
0.0111977
0.010788
0.010431
0.0101165
0.00981764
0.00951185
0.00943008
0.0103789
0.0263356
0.0260242
0.025853
0.0255675
0.0251819
0.0247068
0.02415
0.0235007
0.0226968
0.0218227
0.0208808
0.0198693
0.0188119
0.0177343
0.0166624
0.0156215
0.0146344
0.0137194
0.0128893
0.0121509
0.0115054
0.0109494
0.0104758
0.0100751
0.00973754
0.00945166
0.0091873
0.00892023
0.00890149
0.0100242
0.0269679
0.0267287
0.0265179
0.026165
0.0257093
0.0251627
0.0245298
0.0237835
0.0228899
0.0219314
0.0208931
0.0197847
0.018632
0.0174618
0.0163021
0.01518
0.01412
0.0131418
0.0122592
0.0114796
0.0108044
0.0102301
0.00974905
0.00935127
0.00902635
0.0087614
0.00852338
0.00828796
0.00832547
0.00958955
0.0275628
0.0274059
0.0271591
0.0267392
0.0262137
0.0255975
0.0248883
0.0240412
0.0230681
0.0220221
0.0208893
0.0196867
0.0184413
0.0171814
0.0159366
0.0147358
0.0136049
0.0125647
0.0116297
0.0108079
0.010101
0.00950524
0.00901265
0.00861274
0.00829454
0.00804401
0.00782542
0.00761568
0.00770374
0.00908013
0.0281305
0.028063
0.0277831
0.0272959
0.0267004
0.0260169
0.0252278
0.0242814
0.0232333
0.0220978
0.0208716
0.0195764
0.01824
0.0168921
0.0155639
0.0142858
0.0130849
0.0119829
0.0109952
0.01013
0.00938922
0.008769
0.00826111
0.00785462
0.00753811
0.00729637
0.00709129
0.00690211
0.00703586
0.00849958
0.0286808
0.0287074
0.0283971
0.0278428
0.0271788
0.0264236
0.0255472
0.0245137
0.0233872
0.0221607
0.0208418
0.0194548
0.018028
0.0165928
0.0151818
0.0138267
0.0125557
0.0113914
0.0103498
0.00943959
0.00866263
0.00801503
0.00748831
0.00707122
0.0067519
0.00651399
0.00631723
0.00614418
0.00631942
0.00784977
0.0292233
0.0293457
0.0290078
0.0283862
0.0276532
0.0268247
0.0258542
0.0247424
0.0235318
0.0222133
0.0208017
0.0193224
0.017805
0.016282
0.0147877
0.013355
0.0120129
0.010785
0.0096878
0.00873026
0.00791445
0.00723639
0.00668734
0.0062558
0.0059295
0.00569091
0.00549779
0.00533692
0.00554997
0.00713042
0.0297654
0.0299871
0.0296232
0.0289336
0.0281312
0.0272242
0.026158
0.0249703
0.0236708
0.0222586
0.0207528
0.0191798
0.0175702
0.0159581
0.0143789
0.0128667
0.0114517
0.010158
0.00900262
0.00799499
0.00713725
0.00642534
0.00585035
0.00540051
0.00506319
0.00481961
0.00462578
0.00447345
0.004721
0.00633886
0.0303144
0.0306433
0.0302559
0.0294979
0.0286188
0.0276226
0.0264699
0.0252005
0.0238074
0.022299
0.0206965
0.0190271
0.0173228
0.0156189
0.0139521
0.0123577
0.0108667
0.00950402
0.00828724
0.00722603
0.0063227
0.00557315
0.00496829
0.00449614
0.00414369
0.00389087
0.00369207
0.00354476
0.0038238
0.00546974
0.0308804
0.0313264
0.030917
0.0300875
0.0291253
0.0280302
0.0267965
0.0254365
0.0239454
0.022337
0.0206339
0.0188642
0.0170612
0.0152616
0.0135034
0.0118227
0.0102517
0.00881598
0.00753357
0.00641453
0.00546129
0.00466974
0.00403064
0.00353184
0.00315991
0.00289344
0.00268534
0.00253945
0.00284713
0.00451468
0.0314803
0.0320501
0.0316205
0.0307097
0.0296546
0.0284624
0.0271427
0.0256837
0.0240889
0.0223751
0.020566
0.0186906
0.0167835
0.0148829
0.0130279
0.0112557
0.00959946
0.00808541
0.00673218
0.00555014
0.00454189
0.00370328
0.00302498
0.00249466
0.0020985
0.00181362
0.00159163
0.00144333
0.00177682
0.00346175
0.0321377
0.0328242
0.0323768
0.0313791
0.0302165
0.0289307
0.0275132
0.0259473
0.0242419
0.0224158
0.0204933
0.0185049
0.0164867
0.0144781
0.0125195
0.0106491
0.00890101
0.00730218
0.00587177
0.00462051
0.00355117
0.00265961
0.00193637
0.00136899
0.000943214
0.000634649
0.000393662
0.000238686
0.000595046
0.00229482
0.0328714
0.0336682
0.0332038
0.0321085
0.0308289
0.029444
0.0279168
0.0262345
0.0244093
0.0224613
0.0204159
0.0183053
0.0161668
0.0140413
0.0119703
0.0099934
0.00814523
0.00645369
0.00493842
0.0036105
0.00247286
0.00152137
0.000746501
0.000135625
-0.000325963
-0.000664269
-0.00093005
-0.00109664
-0.000720727
0.000992487
0.0337072
0.0346154
0.0341227
0.0329096
0.0315147
0.0300154
0.0283649
0.0265537
0.0245962
0.0225137
0.0203333
0.0180884
0.015818
0.0135643
0.0113701
0.00927614
0.00731791
0.005524
0.00391459
0.00250108
0.00128657
0.000266916
-0.000567505
-0.00122945
-0.00173413
-0.00210925
-0.00240662
-0.00259071
-0.00219922
-0.000473493
0.0346859
0.0356874
0.0351537
0.0338177
0.0322952
0.0306613
0.0288702
0.0269139
0.0248078
0.0225747
0.0202433
0.0178488
0.0154317
0.0130357
0.0107049
0.00848092
0.00640034
0.00449234
0.00277759
0.00126778
-3.38758e-05
-0.00113152
-0.0020349
-0.00275692
-0.00331336
-0.00373373
-0.0040708
-0.00427959
-0.00387762
-0.00214055
0.0358541
0.0369292
0.0363374
0.0348699
0.0331946
0.031402
0.0294487
0.0273256
0.0250494
0.0226445
0.0201418
0.0175781
0.0149956
0.0124394
0.00995512
0.00758531
0.00536731
0.00333094
0.00149727
-0.000121791
-0.00152294
-0.0027104
-0.00369406
-0.00448699
-0.00510564
-0.00558142
-0.00596802
-0.00621051
-0.00580495
-0.00405897
0.0372797
0.0384012
0.0377341
0.0361072
0.034246
0.0322648
0.0301198
0.027801
0.0253261
0.0227219
0.0200211
0.0172629
0.014491
0.0117522
0.00909331
0.00655784
0.00418383
0.00200157
3.23708e-05
-0.00171171
-0.00322741
-0.00451906
-0.00559675
-0.0064738
-0.0071674
-0.00771101
-0.0081592
-0.00844675
-0.00804733
-0.00629772
0.0390754
0.0401972
0.0394157
0.0375844
0.0354956
0.0332851
0.0309084
0.0283543
0.0256421
0.0228015
0.0198677
0.0168817
0.0138894
0.0109393
0.00807896
0.00535297
0.00279977
0.000449834
-0.00167544
-0.00356404
-0.00521286
-0.00662646
-0.00781517
-0.00879265
-0.00957695
-0.0102037
-0.0107284
-0.0110757
-0.0106967
-0.00895426
0.0413685
0.0424408
0.041482
0.0393851
0.0370098
0.0345122
0.031847
0.0290023
0.0259998
0.0228722
0.0196576
0.0163996
0.0131461
0.00994685
0.00685067
0.00390238
0.00114048
-0.00140468
-0.003712
-0.00576976
-0.00757514
-0.00913303
-0.0104541
-0.0115523
-0.0124468
-0.0131754
-0.0137947
-0.0142202
-0.0138832
-0.0121691
0.0444147
0.0453261
0.044089
0.0416365
0.0388881
0.0360177
0.0329804
0.0297647
0.0263956
0.0229095
0.0193479
0.0157573
0.0121874
0.00868935
0.00531202
0.00209998
-0.000908988
-0.00368544
-0.00620907
-0.00846884
-0.0104624
-0.0121948
-0.0136771
-0.0149237
-0.0159544
-0.016809
-0.0175449
-0.018072
-0.0178102
-0.0161652
0.0485963
0.0491352
0.0474443
0.0444992
0.0412516
0.0378849
0.0343554
0.0306543
0.0268109
0.0228664
0.0188667
0.0148611
0.0109015
0.00703906
0.00332214
-0.000206364
-0.0035108
-0.00656385
-0.009347
-0.0118505
-0.014073
-0.0160203
-0.0177032
-0.0191361
-0.0203398
-0.0213546
-0.0222378
-0.0228995
-0.0227714
-0.021281
0.0547854
0.0545773
0.0521414
0.0484957
0.0445426
0.0404547
0.0362006
0.0317856
0.0272505
0.0226462
0.0180258
0.013443
0.0089511
0.00460025
0.000435654
-0.00350406
-0.0071878
-0.0105924
-0.013702
-0.0165072
-0.0190101
-0.0212294
-0.023161
-0.0248193
-0.0262255
-0.0274179
-0.0284492
-0.0292453
-0.0293139
-0.0281446
0.065591
0.0636963
0.0597059
0.0548298
0.049713
0.0444517
0.0390427
0.0335213
0.0279453
0.0223753
0.0168685
0.0114781
0.00625176
0.00123094
-0.00355007
-0.00806389
-0.0122897
-0.016213
-0.0198253
-0.0231243
-0.0261062
-0.028759
-0.0311082
-0.0331622
-0.0349321
-0.0364435
-0.0377416
-0.0388157
-0.0393701
-0.0388505
0.0178635
0.0188008
0.0205482
0.0219295
0.0230827
0.0241545
0.0251787
0.026164
0.0271206
0.0280579
0.028984
0.0299068
0.0308344
0.0317754
0.0327381
0.0337329
0.0347727
0.0358737
0.0370548
0.0383375
0.0397493
0.0413298
0.0431264
0.0452051
0.0476547
0.0506104
0.0542576
0.058809
0.0644919
0.0718277
0.0221833
0.0231582
0.0242823
0.0252171
0.0260498
0.0268422
0.0276059
0.0283451
0.0290672
0.0297801
0.0304918
0.0312104
0.0319441
0.0327019
0.0334934
0.0343303
0.0352263
0.0361986
0.0372672
0.0384569
0.0398001
0.04134
0.0431331
0.0452576
0.0478231
0.0509923
0.0549997
0.060167
0.0669817
0.0760321
0.0244901
0.0253582
0.0261999
0.02695
0.0276771
0.0283977
0.0291085
0.0298106
0.0305089
0.0312091
0.0319173
0.0326403
0.0333852
0.0341603
0.0349751
0.035841
0.036772
0.0377855
0.0389028
0.0401507
0.0415646
0.0431914
0.0450941
0.0473599
0.0501128
0.0535321
0.057884
0.0635469
0.071172
0.0814507
0.0265014
0.0272607
0.0279873
0.028658
0.0293214
0.0299874
0.030655
0.031327
0.0320084
0.0327047
0.0334214
0.0341649
0.0349422
0.0357613
0.036632
0.0375657
0.0385769
0.0396833
0.0409074
0.0422775
0.0438313
0.0456186
0.0477064
0.050188
0.0531948
0.0569162
0.0616327
0.0677399
0.0759796
0.0870894
0.0283782
0.029045
0.0296822
0.0302821
0.0308857
0.0315031
0.032135
0.032784
0.0334545
0.0341511
0.034879
0.0356442
0.0364535
0.0373151
0.0382389
0.039237
0.0403242
0.0415192
0.0428456
0.0443335
0.0460226
0.0479655
0.0502328
0.0529223
0.0561713
0.0601765
0.0652287
0.0717341
0.0805185
0.0923771
0.0300918
0.0306767
0.0312382
0.0317788
0.0323354
0.0329169
0.033524
0.0341587
0.0348248
0.0355264
0.0362684
0.0370565
0.0378974
0.0387994
0.0397724
0.040829
0.0419845
0.0432583
0.044675
0.0462662
0.0480734
0.0501514
0.0525741
0.0554428
0.0588997
0.0631483
0.0684887
0.0753405
0.0846108
0.0971772
0.0316395
0.0321513
0.0326487
0.0331409
0.0336609
0.0342156
0.0348053
0.0354319
0.0360983
0.0368085
0.0375669
0.038379
0.0392514
0.0401924
0.0412121
0.0423232
0.0435414
0.0448867
0.0463847
0.048068
0.0499794
0.0521758
0.0547333
0.0577563
0.0613911
0.0658466
0.071432
0.0785802
0.0882647
0.101459
0.0330165
0.0334626
0.0339052
0.034358
0.0348491
0.0353837
0.0359616
0.0365842
0.0372541
0.0379748
0.0387504
0.0395862
0.0404887
0.0414661
0.0425286
0.0436892
0.044964
0.0463733
0.0479434
0.0497079
0.0517108
0.0540102
0.0566842
0.0598398
0.0636262
0.0682572
0.0740494
0.081448
0.0914719
0.105198
0.0342143
0.0346016
0.0349977
0.0354186
0.0358874
0.0364072
0.0369774
0.0375989
0.038274
0.0390058
0.039798
0.0406558
0.0415856
0.0425957
0.0436962
0.0449003
0.0462243
0.0476892
0.0493215
0.0511557
0.0532366
0.0556235
0.058396
0.0616629
0.0655761
0.0703531
0.0763169
0.0839232
0.0942153
0.10838
0.0352261
0.0355617
0.0359191
0.0363151
0.0367668
0.0372759
0.0378412
0.0384635
0.0391444
0.0398867
0.0406941
0.0415715
0.0425251
0.0435632
0.0446961
0.0459371
0.0473026
0.0488139
0.0504982
0.0523902
0.0545356
0.0569945
0.0598478
0.0632056
0.0672221
0.0721174
0.0782201
0.0859941
0.0964902
0.11101
0.0360489
0.0363406
0.0366672
0.037044
0.0374832
0.0379846
0.0385471
0.0391709
0.0398575
0.0406092
0.0414296
0.0423233
0.0432967
0.0443579
0.0455174
0.0467883
0.0481874
0.0497362
0.0514621
0.0534004
0.0555973
0.0581135
0.0610307
0.0644604
0.0685582
0.0735462
0.0797575
0.087663
0.0983067
0.113108
0.0366848
0.0369411
0.0372442
0.037607
0.0380372
0.0385335
0.0390944
0.03972
0.0404115
0.0411709
0.0420017
0.0429084
0.0438973
0.0449766
0.0461566
0.0474506
0.0488756
0.0504532
0.052211
0.0541847
0.0564207
0.0589804
0.061946
0.06543
0.0695889
0.0746465
0.0809392
0.0889436
0.0996871
0.114709
0.0371409
0.037371
0.0376574
0.0380107
0.0384348
0.0389277
0.0394879
0.0401151
0.0408103
0.0415756
0.042414
0.0433303
0.0443305
0.0454228
0.0466176
0.0479282
0.0493718
0.05097
0.0527506
0.0547494
0.0570132
0.0596038
0.0626038
0.066126
0.0703281
0.0754347
0.0817845
0.0898587
0.100662
0.115851
0.0374291
0.0376421
0.0379179
0.0382654
0.0386859
0.0391769
0.0397367
0.0403651
0.0410629
0.041832
0.0426755
0.0435979
0.0446054
0.045706
0.0469103
0.0482316
0.049687
0.0512982
0.0530932
0.055108
0.0573895
0.0599995
0.0630212
0.0665675
0.0707968
0.075934
0.0823198
0.0904377
0.101269
0.11658
0.0375645
0.0377691
0.03804
0.0383848
0.0388037
0.0392938
0.0398536
0.0404827
0.0411818
0.0419527
0.0427986
0.043724
0.044735
0.0458396
0.0470485
0.0483749
0.0498359
0.0514535
0.0532554
0.0552778
0.0575677
0.0601871
0.063219
0.0667769
0.0710191
0.0761709
0.0825738
0.0907123
0.10155
0.116932
0.0375644
0.037769
0.0380399
0.0383847
0.0388036
0.0392937
0.0398535
0.0404826
0.0411817
0.0419527
0.0427986
0.0437239
0.0447349
0.0458396
0.0470484
0.0483748
0.0498359
0.0514534
0.0532553
0.0552777
0.0575676
0.060187
0.0632189
0.0667768
0.071019
0.0761708
0.0825736
0.0907122
0.10155
0.116932
0.0374288
0.0376418
0.0379177
0.0382652
0.0386857
0.0391767
0.0397365
0.0403649
0.0410627
0.0418318
0.0426753
0.0435977
0.0446051
0.0457058
0.04691
0.0482313
0.0496867
0.051298
0.053093
0.0551078
0.0573892
0.0599993
0.0630209
0.0665673
0.0707965
0.0759337
0.0823194
0.0904373
0.101269
0.116579
0.0371405
0.0373706
0.0376569
0.0380103
0.0384344
0.0389273
0.0394875
0.0401147
0.0408099
0.0415752
0.0424137
0.0433299
0.0443301
0.0454224
0.0466172
0.0479279
0.0493714
0.0509696
0.0527502
0.054749
0.0570128
0.0596033
0.0626033
0.0661255
0.0703275
0.0754341
0.0817839
0.089858
0.100661
0.11585
0.0366841
0.0369405
0.0372436
0.0376065
0.0380367
0.0385329
0.0390939
0.0397195
0.0404109
0.0411704
0.0420012
0.0429079
0.0438968
0.044976
0.046156
0.0474501
0.0488751
0.0504527
0.0522104
0.0541841
0.05642
0.0589797
0.0619454
0.0654292
0.0695881
0.0746457
0.0809384
0.0889427
0.099686
0.114708
0.036048
0.0363398
0.0366663
0.0370432
0.0374824
0.0379839
0.0385464
0.0391702
0.0398568
0.0406085
0.0414289
0.0423226
0.043296
0.0443572
0.0455167
0.0467876
0.0481867
0.0497355
0.0514614
0.0533997
0.0555965
0.0581127
0.0610299
0.0644595
0.0685572
0.0735451
0.0797563
0.0876618
0.0983053
0.113107
0.035225
0.0355607
0.0359181
0.0363141
0.0367659
0.037275
0.0378403
0.0384626
0.0391436
0.0398859
0.0406933
0.0415706
0.0425243
0.0435624
0.0446953
0.0459362
0.0473017
0.0488131
0.0504972
0.0523892
0.0545346
0.0569935
0.0598467
0.0632045
0.0672209
0.0721161
0.0782187
0.0859925
0.0964884
0.111008
0.034213
0.0346004
0.0349965
0.0354175
0.0358863
0.0364061
0.0369763
0.0375978
0.038273
0.0390047
0.039797
0.0406548
0.0415846
0.0425947
0.0436952
0.0448993
0.0462233
0.0476881
0.0493204
0.0511545
0.0532354
0.0556222
0.0583947
0.0616615
0.0655747
0.0703515
0.0763153
0.0839213
0.0942132
0.108378
0.0330149
0.0334612
0.0339038
0.0343566
0.0348478
0.0353824
0.0359604
0.036583
0.0372529
0.0379736
0.0387492
0.039585
0.0404875
0.0414649
0.0425275
0.043688
0.0449628
0.0463721
0.0479422
0.0497066
0.0517095
0.0540088
0.0566828
0.0598382
0.0636246
0.0682554
0.0740474
0.0814459
0.0914695
0.105195
0.0316377
0.0321496
0.0326471
0.0331394
0.0336593
0.0342141
0.0348039
0.0354305
0.0360969
0.0368071
0.0375656
0.0383777
0.0392501
0.0401911
0.0412108
0.0423218
0.04354
0.0448854
0.0463832
0.0480665
0.0499779
0.0521742
0.0547316
0.0577546
0.0613893
0.0658446
0.0714298
0.0785778
0.088262
0.101456
0.0300898
0.0306748
0.0312364
0.031777
0.0323337
0.0329153
0.0335223
0.0341571
0.0348232
0.0355249
0.0362669
0.037055
0.0378959
0.0387979
0.039771
0.0408276
0.041983
0.0432568
0.0446734
0.0462646
0.0480718
0.0501497
0.0525723
0.0554409
0.0588977
0.0631461
0.0684863
0.0753379
0.0846078
0.0971736
0.0283759
0.0290428
0.0296801
0.03028
0.0308838
0.0315012
0.0321332
0.0327823
0.0334528
0.0341494
0.0348774
0.0356426
0.0364519
0.0373135
0.0382373
0.0392354
0.0403226
0.0415176
0.0428439
0.0443318
0.0460208
0.0479636
0.0502309
0.0529203
0.0561691
0.0601741
0.0652261
0.0717312
0.0805152
0.0923732
0.0264989
0.0272583
0.027985
0.0286558
0.0293192
0.0299853
0.030653
0.0313251
0.0320065
0.0327028
0.0334196
0.0341632
0.0349405
0.0357596
0.0366302
0.037564
0.0385751
0.0396816
0.0409056
0.0422757
0.0438294
0.0456166
0.0477043
0.0501858
0.0531925
0.0569136
0.0616299
0.0677368
0.075976
0.0870852
0.0244872
0.0253554
0.0261972
0.0269475
0.0276747
0.0283954
0.0291063
0.0298085
0.0305068
0.0312071
0.0319154
0.0326384
0.0333834
0.0341585
0.0349733
0.0358392
0.0367702
0.0377836
0.0389009
0.0401487
0.0415626
0.0431893
0.0450919
0.0473576
0.0501103
0.0535294
0.057881
0.0635437
0.0711682
0.0814462
0.0221801
0.0231551
0.0242794
0.0252144
0.0260472
0.0268397
0.0276035
0.0283428
0.029065
0.029778
0.0304898
0.0312084
0.0319421
0.0326999
0.0334915
0.0343283
0.0352244
0.0361966
0.0372652
0.0384549
0.039798
0.0413378
0.0431308
0.0452552
0.0478206
0.0509896
0.0549966
0.0601636
0.0669778
0.0760273
0.0178596
0.018797
0.0205447
0.0219262
0.0230796
0.0241516
0.0251759
0.0261614
0.027118
0.0280554
0.0289816
0.0299045
0.0308322
0.0317732
0.0327359
0.0337308
0.0347706
0.0358716
0.0370528
0.0383354
0.0397472
0.0413276
0.0431242
0.0452027
0.0476522
0.0506077
0.0542546
0.0588056
0.0644879
0.0718227
0.0655858
0.0636911
0.0597006
0.0548243
0.0497074
0.0444461
0.039037
0.0335155
0.0279395
0.0223695
0.0168627
0.0114724
0.00624616
0.00122545
-0.00355542
-0.00806909
-0.0122948
-0.0162178
-0.0198299
-0.0231288
-0.0261105
-0.028763
-0.031112
-0.0331658
-0.0349355
-0.0364466
-0.0377446
-0.0388185
-0.0393727
-0.038853
0.054781
0.0545729
0.052137
0.0484911
0.0445379
0.0404499
0.0361957
0.0317806
0.0272455
0.0226412
0.0180207
0.013438
0.00894616
0.0045954
0.000430911
-0.00350867
-0.00719227
-0.0105967
-0.0137061
-0.0165111
-0.0190138
-0.021233
-0.0231644
-0.0248225
-0.0262286
-0.0274207
-0.0284519
-0.0292478
-0.0293163
-0.0281469
0.0485925
0.0491314
0.0474403
0.0444951
0.0412474
0.0378806
0.034351
0.0306499
0.0268064
0.022862
0.0188622
0.0148567
0.0108971
0.0070347
0.00331788
-0.000210523
-0.00351483
-0.00656774
-0.00935075
-0.0118541
-0.0140764
-0.0160236
-0.0177063
-0.0191391
-0.0203426
-0.0213572
-0.0222402
-0.0229018
-0.0227736
-0.0212832
0.0444112
0.0453227
0.0440855
0.0416329
0.0388843
0.0360139
0.0329764
0.0297607
0.0263916
0.0229054
0.0193438
0.0157532
0.0121834
0.00868536
0.00530811
0.00209616
-0.000912694
-0.00368902
-0.00621252
-0.00847214
-0.0104655
-0.0121978
-0.01368
-0.0149264
-0.0159569
-0.0168114
-0.0175472
-0.0180741
-0.0178122
-0.0161672
0.0413654
0.0424377
0.0414788
0.0393818
0.0370064
0.0345087
0.0318434
0.0289986
0.0259961
0.0228685
0.0196538
0.0163958
0.0131423
0.00994316
0.00684704
0.00389883
0.00113704
-0.00140801
-0.0037152
-0.00577283
-0.00757807
-0.00913582
-0.0104567
-0.0115548
-0.0124492
-0.0131777
-0.0137968
-0.0142222
-0.0138851
-0.012171
0.0390725
0.0401943
0.0394128
0.0375814
0.0354924
0.0332818
0.030905
0.0283508
0.0256387
0.022798
0.0198641
0.0168782
0.0138859
0.0109358
0.00807556
0.00534965
0.00279654
0.000446709
-0.00167845
-0.00356693
-0.00521562
-0.00662909
-0.00781768
-0.00879503
-0.0095792
-0.0102058
-0.0107304
-0.0110776
-0.0106985
-0.00895603
0.037277
0.0383985
0.0377313
0.0361043
0.034243
0.0322617
0.0301167
0.0277978
0.0253228
0.0227186
0.0200178
0.0172595
0.0144877
0.011749
0.00909009
0.00655469
0.00418077
0.00199861
2.95172e-05
-0.00171445
-0.00323003
-0.00452156
-0.00559913
-0.00647606
-0.00716954
-0.00771303
-0.00816112
-0.00844857
-0.00804906
-0.00629939
0.0358516
0.0369266
0.0363347
0.0348671
0.0331918
0.0313991
0.0294457
0.0273226
0.0250463
0.0226414
0.0201386
0.0175749
0.0149924
0.0124363
0.00995206
0.00758231
0.00536439
0.00332812
0.00149454
-0.000124411
-0.00152545
-0.0027128
-0.00369634
-0.00448916
-0.0051077
-0.00558338
-0.00596988
-0.00621226
-0.00580663
-0.00406059
0.0346835
0.035685
0.0351511
0.033815
0.0322926
0.0306585
0.0288673
0.026911
0.0248048
0.0225717
0.0202403
0.0178458
0.0154287
0.0130327
0.0107019
0.00847805
0.00639753
0.00448963
0.00277497
0.00126526
-3.62948e-05
-0.00113383
-0.00203711
-0.00275902
-0.00331536
-0.00373563
-0.0040726
-0.00428131
-0.00387926
-0.00214211
0.0337049
0.0346131
0.0341202
0.0329071
0.0315121
0.0300128
0.0283621
0.0265509
0.0245934
0.0225108
0.0203304
0.0180855
0.0158151
0.0135614
0.0113673
0.00927336
0.0073152
0.00552137
0.00391205
0.00249864
0.00128422
0.000264669
-0.000569653
-0.0012315
-0.00173608
-0.00211112
-0.0024084
-0.00259241
-0.00220084
-0.00047502
0.0328691
0.0336659
0.0332014
0.032106
0.0308264
0.0294414
0.0279142
0.0262318
0.0244066
0.0224585
0.0204131
0.0183025
0.016164
0.0140385
0.0119676
0.0099907
0.0081426
0.00645113
0.00493595
0.00360811
0.00247057
0.00151918
0.000744398
0.000133614
-0.000327885
-0.000666105
-0.000931805
-0.00109832
-0.00072233
0.000990984
0.0321355
0.032822
0.0323745
0.0313767
0.0302141
0.0289282
0.0275106
0.0259447
0.0242392
0.0224131
0.0204905
0.0185022
0.016484
0.0144754
0.0125168
0.0106465
0.00889844
0.00729968
0.00586935
0.00461818
0.00354892
0.00265745
0.0019343
0.00136701
0.000941315
0.000632831
0.000391919
0.000237013
0.000593448
0.00229333
0.0314781
0.0320479
0.0316182
0.0307074
0.0296521
0.02846
0.0271402
0.0256811
0.0240862
0.0223725
0.0205633
0.0186879
0.0167808
0.0148802
0.0130252
0.0112532
0.00959695
0.00808297
0.00672981
0.00554785
0.00453967
0.00370116
0.00302294
0.0024927
0.00209662
0.00181181
0.00158989
0.00144165
0.00177522
0.00346027
0.0308783
0.0313242
0.0309148
0.0300852
0.0291229
0.0280278
0.026794
0.025434
0.0239428
0.0223344
0.0206313
0.0188616
0.0170586
0.015259
0.0135008
0.0118202
0.0102493
0.00881357
0.00753123
0.00641226
0.00545911
0.00466763
0.00402862
0.00352989
0.00315804
0.00289163
0.0026836
0.00253777
0.00284552
0.0045132
0.0303123
0.0306411
0.0302536
0.0294957
0.0286164
0.0276203
0.0264674
0.025198
0.0238049
0.0222964
0.0206939
0.0190245
0.0173202
0.0156163
0.0139496
0.0123552
0.0108643
0.00950165
0.00828493
0.0072238
0.00632054
0.00557106
0.00496627
0.0044942
0.00414182
0.00388906
0.00369033
0.00354307
0.00382218
0.00546826
0.0297633
0.029985
0.0296209
0.0289314
0.0281288
0.0272218
0.0261555
0.0249679
0.0236683
0.022256
0.0207503
0.0191773
0.0175677
0.0159556
0.0143764
0.0128643
0.0114493
0.0101556
0.00900034
0.00799277
0.0071351
0.00642326
0.00584834
0.00539857
0.00506132
0.0048178
0.00462402
0.00447175
0.00471937
0.00633737
0.0292212
0.0293434
0.0290055
0.0283839
0.0276509
0.0268223
0.0258518
0.02474
0.0235293
0.0222108
0.0207992
0.0193199
0.0178025
0.0162796
0.0147853
0.0133525
0.0120105
0.0107827
0.00968553
0.00872805
0.00791231
0.00723431
0.00668534
0.00625386
0.00592763
0.00568909
0.00549603
0.00533521
0.00554832
0.00712892
0.0286787
0.0287052
0.0283948
0.0278405
0.0271765
0.0264213
0.0255448
0.0245113
0.0233847
0.0221582
0.0208393
0.0194523
0.0180256
0.0165903
0.0151793
0.0138243
0.0125533
0.0113891
0.0103476
0.0094374
0.0086605
0.00801296
0.0074863
0.00706927
0.00675001
0.00651216
0.00631545
0.00614244
0.00631775
0.00784825
0.0281283
0.0280607
0.0277808
0.0272935
0.0266981
0.0260145
0.0252254
0.0242789
0.0232309
0.0220953
0.0208691
0.019574
0.0182376
0.0168897
0.0155615
0.0142834
0.0130825
0.0119806
0.0109929
0.0101278
0.0093871
0.00876693
0.00825909
0.00785267
0.00753621
0.00729453
0.0070895
0.00690036
0.00703417
0.00849804
0.0275605
0.0274036
0.0271567
0.0267368
0.0262113
0.0255951
0.0248858
0.0240387
0.0230656
0.0220196
0.0208868
0.0196843
0.0184389
0.017179
0.0159342
0.0147334
0.0136026
0.0125624
0.0116275
0.0108058
0.0100989
0.00950317
0.00901063
0.00861077
0.00829263
0.00804215
0.0078236
0.0076139
0.00770202
0.00907856
0.0269656
0.0267263
0.0265155
0.0261626
0.0257068
0.0251602
0.0245273
0.0237811
0.0228875
0.0219289
0.0208906
0.0197823
0.0186295
0.0174594
0.0162997
0.0151776
0.0141177
0.0131396
0.012257
0.0114774
0.0108023
0.010228
0.00974703
0.0093493
0.00902442
0.00875952
0.00852154
0.00828616
0.00832372
0.00958794
0.0263332
0.0260217
0.0258505
0.025565
0.0251795
0.0247043
0.0241475
0.0234982
0.0226943
0.0218202
0.0208783
0.0198668
0.0188095
0.0177319
0.01666
0.0156191
0.0146321
0.0137171
0.012887
0.0121487
0.0115033
0.0109473
0.0104737
0.0100731
0.0097356
0.00944975
0.00918544
0.0089184
0.00889971
0.0100225
0.025651
0.0252818
0.0251548
0.0249382
0.0246247
0.0242245
0.0237433
0.0231829
0.0224831
0.0216901
0.0208472
0.0199365
0.0189783
0.0179973
0.0170172
0.0160612
0.01515
0.0143003
0.0135235
0.0128258
0.012208
0.0116668
0.0111957
0.010786
0.010429
0.0101145
0.00981575
0.00950999
0.00942826
0.0103772
0.024902
0.0244967
0.0244202
0.0242753
0.0240359
0.0237135
0.0233102
0.0228343
0.0222476
0.0215383
0.0207954
0.0199897
0.0191354
0.0182562
0.0173732
0.0165071
0.0156759
0.0148943
0.0141722
0.0135145
0.0129219
0.0123911
0.0119166
0.0114907
0.0111059
0.0107536
0.0104108
0.010058
0.00990522
0.0106458
0.0240643
0.0236529
0.0236345
0.0235663
0.0234058
0.0231642
0.0228427
0.0224533
0.0219792
0.0213636
0.0207208
0.0200248
0.0192804
0.0185093
0.01773
0.0169598
0.0162139
0.015504
0.014838
0.0142195
0.0136487
0.013123
0.0126378
0.0121869
0.0117643
0.0113635
0.0109658
0.0105568
0.0103238
0.0108222
0.0231173
0.022745
0.0227915
0.0228034
0.0227289
0.0225739
0.0223387
0.0220388
0.021672
0.0211616
0.0206188
0.0200385
0.0194108
0.0187557
0.0180884
0.0174223
0.0167684
0.0161351
0.0155275
0.0149473
0.0143939
0.0138667
0.0133622
0.0128758
0.0124035
0.0119416
0.0114765
0.0110015
0.0106779
0.0109031
0.0220269
0.0218025
0.0219313
0.0220141
0.022023
0.0219554
0.0218062
0.0215924
0.0213226
0.0209278
0.020481
0.0200209
0.0195186
0.0189908
0.0184492
0.0179018
0.017354
0.0168086
0.0162667
0.0157268
0.0151872
0.0146522
0.0141183
0.0135823
0.0130442
0.0125042
0.0119553
0.0114001
0.0109679
0.0108882
0.0205839
0.0207676
0.0210825
0.0212364
0.021312
0.02132
0.0212483
0.0211077
0.0209195
0.0206481
0.0202978
0.0199619
0.0195979
0.0192167
0.0188245
0.0184211
0.0180032
0.0175656
0.0171026
0.0166096
0.0160855
0.0155296
0.0149487
0.014342
0.0137141
0.0130713
0.0124145
0.0117546
0.0111781
0.0107623
0.0181029
0.0188989
0.0196989
0.0200998
0.0203286
0.0204699
0.0205255
0.0205047
0.0204364
0.0203176
0.0201072
0.0199193
0.0197129
0.019491
0.0192522
0.0189873
0.018684
0.0183312
0.0179184
0.0174426
0.0169232
0.016287
0.0156215
0.014916
0.0141784
0.0134202
0.0126496
0.0118807
0.011153
0.0104481
0.0141919
0.0147849
0.0162537
0.0173391
0.0181258
0.0187509
0.0192407
0.0196065
0.0198762
0.0200602
0.0201215
0.0201344
0.0200708
0.0199267
0.0197009
0.0193898
0.0189904
0.0185057
0.0179389
0.0172895
0.0165508
0.0158334
0.015077
0.0142972
0.0135146
0.0127421
0.0119892
0.0112703
0.0105951
0.009914
-0.0405284
-0.0325875
-0.0265911
-0.0217218
-0.0177025
-0.0143565
-0.0115339
-0.00912533
-0.00704769
-0.00523775
-0.00364683
-0.00223697
-0.000978172
0.000153627
0.00117792
0.00211068
0.00296503
0.00375179
0.00447969
0.00515559
0.00578442
0.00636914
0.0069106
0.00740744
0.00785568
0.00824701
0.00857135
0.00882589
0.00901183
0.00905802
-0.0406799
-0.0326114
-0.0263201
-0.0213206