/*--------------------------------*- C++ -*----------------------------------*\
  =========                 |
  \\      /  F ield         | OpenFOAM: The Open Source CFD Toolbox
   \\    /   O peration     | Website:  https://openfoam.org
    \\  /    A nd           | Version:  12
     \\/     M anipulation  |
\*---------------------------------------------------------------------------*/
FoamFile
{
    format      ascii;
    class       surfaceScalarField;
    location    "160";
    object      phi;
}
// * * * * * * * * * * * * * * * * * * * * * * * * * * * * * * * * * * * * * //

dimensions      [0 3 -1 0 0 0 0];

internalField   nonuniform List<scalar> 
13275
(
0.369023
-0.00462576
0.369481
-0.0114856
0.369794
-0.0154069
0.369908
-0.0173618
-0.0180322
0.369848
0.351098
-0.0048988
0.35146
-0.0118476
0.351681
-0.0156276
0.351642
-0.0173227
-0.0176343
0.351244
0.334002
-0.00502167
0.334077
-0.0119232
0.333968
-0.0155182
0.333633
-0.0169883
-0.0170954
0.333095
0.317721
-0.00499221
0.31751
-0.0117123
0.317103
-0.0151103
0.316532
-0.016418
-0.0164207
0.315857
0.302245
-0.00483539
0.30179
-0.0112571
0.301125
-0.0144449
0.300335
-0.0156289
-0.0155836
0.299498
0.287534
-0.00457515
0.286872
-0.0105951
0.285978
-0.0135506
0.284977
-0.0146276
-0.0145643
0.283957
0.273546
-0.00422881
0.272706
-0.00975503
0.271606
-0.0124504
0.270402
-0.0134238
-0.0133582
0.269196
0.260244
-0.00381009
0.259251
-0.00876275
0.25797
-0.011169
0.256581
-0.0120351
-0.0119754
0.255198
0.247593
-0.00333212
0.246475
-0.00764525
0.245043
-0.00973612
0.243496
-0.0104886
-0.0104384
0.241959
0.235564
-0.00280862
0.234351
-0.00643213
0.232802
-0.00818686
0.231133
-0.00881933
-0.00877949
0.229474
0.224129
-0.00225399
0.222852
-0.00515479
0.221224
-0.00655946
0.219472
-0.00706681
-0.00703695
0.217729
0.213259
-0.00168268
0.211949
-0.00384464
0.210282
-0.0048928
0.208488
-0.005272
-0.00525104
0.206702
0.202927
-0.00110855
0.201614
-0.00253118
0.199945
-0.00322363
0.198147
-0.00347389
-0.00346056
0.196356
0.193107
-0.000544174
0.191817
-0.00124087
0.190177
-0.00158423
0.18841
-0.00170677
-0.0017001
0.18665
0.183771
4.68233e-07
0.182529
1.09976e-06
0.180944
1.42123e-06
0.179235
1.53139e-06
1.51789e-06
0.177534
0.183771
0.000545113
0.182529
0.00124307
0.180944
0.00158706
0.179235
0.00170983
0.00170313
0.177534
0.193107
0.00110948
0.191817
0.00253338
0.190177
0.00322646
0.18841
0.00347694
0.00346359
0.18665
0.202927
0.00168361
0.201614
0.00384684
0.199945
0.00489562
0.198147
0.00527504
0.00525405
0.196356
0.213259
0.00225492
0.211949
0.00515697
0.210282
0.00656227
0.208488
0.00706983
0.00703995
0.206702
0.224129
0.00280954
0.222852
0.0064343
0.221224
0.00818964
0.219472
0.00882233
0.00878247
0.217729
0.235564
0.00333302
0.234351
0.00764739
0.232802
0.00973888
0.231133
0.0104916
0.0104413
0.229474
0.247593
0.00381099
0.246476
0.00876488
0.245043
0.0111717
0.243496
0.012038
0.0119783
0.241959
0.260244
0.00422969
0.259251
0.00975714
0.25797
0.0124531
0.256581
0.0134267
0.0133611
0.255198
0.273546
0.00457602
0.272706
0.0105971
0.271606
0.0135533
0.270402
0.0146305
0.0145672
0.269196
0.287534
0.00483625
0.286872
0.0112591
0.285978
0.0144476
0.284977
0.0156318
0.0155864
0.283957
0.302245
0.00499306
0.30179
0.0117143
0.301125
0.0151129
0.300336
0.0164208
0.0164236
0.299498
0.317721
0.0050225
0.317511
0.0119252
0.317103
0.0155208
0.316532
0.0169912
0.0170982
0.315858
0.334002
0.0048996
0.334077
0.0118495
0.333968
0.0156302
0.333634
0.0173255
0.0176371
0.333095
0.351098
0.00462651
0.35146
0.0114875
0.351681
0.0154094
0.351642
0.0173646
0.0180351
0.351244
0.369023
0.369481
0.369794
0.369908
0.369848
0.19736
-0.0505385
-0.1974
0.196947
-0.057781
0.195923
-0.0640542
0.194268
-0.0695733
0.192038
-0.074303
0.189305
-0.0781776
0.186139
-0.0811061
0.182618
-0.0829654
0.17883
-0.0836113
0.174886
-0.0829944
0.170874
-0.0809182
0.166948
-0.0772451
0.163254
-0.0720583
0.159935
-0.0654485
0.157123
-0.0575937
0.154923
-0.0487496
0.153405
-0.0392278
0.152605
-0.0293664
0.152516
-0.019501
0.153097
-0.00993994
0.15426
-0.000910178
0.155968
0.00737324
0.158111
0.0148253
0.160596
0.0213511
0.163336
0.0269313
0.166251
0.0315853
0.169271
0.0353591
0.172335
0.0383144
0.175384
0.0405214
0.0420472
0.178325
0.194729
-0.0506578
-0.19461
0.194065
-0.0571171
0.192711
-0.0627002
0.190767
-0.0676287
0.188309
-0.0718455
0.185412
-0.0752797
0.18214
-0.0778346
0.178564
-0.0793899
0.17477
-0.0798171
0.170854
-0.0790785
0.166896
-0.0769603
0.163044
-0.0733927
0.15943
-0.0684439
0.156184
-0.0622024
0.153424
-0.0548345
0.151249
-0.0465739
0.149723
-0.037702
0.148879
-0.0285227
0.148715
-0.0193363
0.149189
-0.0104149
0.150263
-0.0019834
0.151843
0.00579326
0.153864
0.0128044
0.156236
0.0189786
0.158876
0.0242913
0.161707
0.0287544
0.164662
0.0324046
0.167683
0.0352932
0.170714
0.03749
0.039129
0.173632
0.191412
-0.0503989
-0.191671
0.190445
-0.05615
0.188878
-0.0611324
0.186788
-0.0655391
0.184243
-0.0693006
0.181302
-0.0723386
0.178022
-0.0745548
0.174468
-0.0758359
0.170725
-0.0760741
0.166871
-0.0752246
0.162991
-0.0730797
0.159221
-0.0696227
0.155683
-0.064906
0.152498
-0.0590174
0.149776
-0.0521128
0.147608
-0.044406
0.146058
-0.0361518
0.145158
-0.0276231
0.14491
-0.0190881
0.145285
-0.0107901
0.146233
-0.00293158
0.147689
0.00433787
0.149579
0.0109136
0.151826
0.0167322
0.154348
0.0217689
0.157072
0.0260304
0.159931
0.0295457
0.162868
0.032356
0.165833
0.0345258
0.0362586
0.168703
0.187985
-0.0497986
-0.188585
0.186761
-0.0549257
0.185011
-0.0593822
0.182794
-0.0633231
0.180169
-0.066675
0.177186
-0.0693558
0.1739
-0.0712683
0.170368
-0.0723045
0.166678
-0.0723841
0.162889
-0.0714349
0.15909
-0.0692816
0.155405
-0.0659377
0.151944
-0.061445
0.148818
-0.0558906
0.146126
-0.0494214
0.143954
-0.0422341
0.142363
-0.0345602
0.141385
-0.0266455
0.141027
-0.0187302
0.141269
-0.0110313
0.142066
-0.00372925
0.143365
0.00303941
0.145098
0.00918044
0.147193
0.0146368
0.149577
0.0193848
0.152179
0.0234285
0.154934
0.0267909
0.157786
0.0295043
0.160686
0.0316255
0.0334246
0.16352
0.184477
-0.0489064
-0.185369
0.183028
-0.0534764
0.181109
-0.0574638
0.178774
-0.0609881
0.176072
-0.0639728
0.17305
-0.0663338
0.169758
-0.0679761
0.166252
-0.0687989
0.162613
-0.0687449
0.158886
-0.0677081
0.155169
-0.0655639
0.151565
-0.0623342
0.148177
-0.0580569
0.145104
-0.0528179
0.142439
-0.046756
0.140258
-0.0400536
0.13862
-0.032922
0.137558
-0.0255837
0.137082
-0.0182541
0.137178
-0.0111269
0.137811
-0.00436297
0.138935
0.0019154
0.140492
0.00762407
0.142416
0.0127125
0.144641
0.0171596
0.147101
0.0209683
0.149735
0.0241575
0.152487
0.0267524
0.155311
0.0288011
0.0306307
0.158105
0.180857
-0.047751
-0.182012
0.179203
-0.0518227
0.177133
-0.0553939
0.174692
-0.0585475
0.171924
-0.0612044
0.16887
-0.0632801
0.165578
-0.0646837
0.162102
-0.0653229
0.15851
-0.0651528
0.154845
-0.0640434
0.151203
-0.0619219
0.147676
-0.0588069
0.144355
-0.0547364
0.141332
-0.049795
0.138691
-0.0441145
0.136502
-0.0378646
0.134819
-0.0312394
0.133676
-0.0244407
0.133085
-0.0176628
0.133037
-0.0110788
0.133506
-0.00483164
0.134451
0.000970219
0.135822
0.00625246
0.137564
0.0109712
0.139615
0.0151086
0.141916
0.0186676
0.144408
0.0216647
0.147041
0.0241202
0.149768
0.0260739
0.0278951
0.152503
0.177104
-0.0463571
-0.178498
0.175267
-0.0499859
0.173064
-0.0531907
0.170532
-0.0560159
0.167709
-0.058381
0.164632
-0.0602029
0.161344
-0.0613961
0.1579
-0.061879
0.154351
-0.0616041
0.150747
-0.0604392
0.147176
-0.0583506
0.14372
-0.0553506
0.140462
-0.0514789
0.137486
-0.0468191
0.134868
-0.0414967
0.132674
-0.0356701
0.130953
-0.0295182
0.129737
-0.0232251
0.12904
-0.0169661
0.128858
-0.0108961
0.129168
-0.00514232
0.129939
0.000199782
0.131126
0.00506533
0.13268
0.00941691
0.134549
0.0132402
0.136677
0.0165392
0.139012
0.0193292
0.141506
0.0216271
0.144113
0.0234661
0.0252415
0.146767
0.173209
-0.0447509
-0.174815
0.171212
-0.0479889
0.168894
-0.0508723
0.166285
-0.053407
0.163417
-0.0555127
0.160323
-0.0571094
0.157044
-0.0581166
0.153632
-0.0584672
0.150124
-0.0580967
0.146579
-0.0568938
0.143074
-0.0548453
0.139683
-0.0519603
0.136485
-0.0482807
0.133555
-0.0438887
0.130962
-0.0389039
0.128767
-0.0334749
0.127015
-0.0277667
0.125738
-0.0219476
0.124948
-0.0161765
0.124644
-0.0105921
0.124809
-0.00530717
0.125415
-0.000405747
0.126424
0.00405616
0.127793
0.00804727
0.129477
0.0115569
0.131426
0.0145905
0.133592
0.0171627
0.135931
0.0192886
0.1384
0.020997
0.0226935
0.140948
0.169168
-0.0429597
-0.170959
0.167033
-0.0458547
0.164617
-0.0484558
0.161943
-0.0507334
0.159039
-0.0526084
0.155935
-0.0540054
0.152667
-0.0548483
0.149285
-0.0550849
0.145818
-0.0546302
0.142329
-0.0534046
0.138886
-0.0514022
0.135558
-0.0486326
0.132417
-0.0451394
0.129531
-0.0410035
0.126966
-0.036339
0.124776
-0.0312849
0.123004
-0.0259942
0.121677
-0.0206208
0.120809
-0.0153085
0.120399
-0.0101821
0.120433
-0.00534139
0.120888
-0.000860037
0.12173
0.00321395
0.122922
0.00685487
0.124424
0.0100555
0.126191
0.0128229
0.128182
0.0151717
0.130355
0.017116
0.13267
0.0186818
0.0202722
0.135091
0.164975
-0.0410103
-0.166924
0.162724
-0.0436045
0.160226
-0.0459571
0.157499
-0.0480063
0.154566
-0.049676
0.151456
-0.0508955
0.148204
-0.0515959
0.144849
-0.0517305
0.141424
-0.0512043
0.137988
-0.0499689
0.134604
-0.0480183
0.131336
-0.0453649
0.128251
-0.0420539
0.125412
-0.0381645
0.122878
-0.0338054
0.1207
-0.0291069
0.118917
-0.0242105
0.117553
-0.0192572
0.116622
-0.0143773
0.116122
-0.00968255
0.116043
-0.00526175
0.116362
-0.00117906
0.117051
0.00252457
0.118077
0.00582847
0.119404
0.0087285
0.120994
0.0112333
0.122808
0.0133575
0.124809
0.015115
0.12696
0.0165307
0.0179943
0.129238
0.160626
-0.0389278
-0.162709
0.15828
-0.0412582
0.155714
-0.0433907
0.152944
-0.0452364
0.149991
-0.0467227
0.146879
-0.0477844
0.143645
-0.0483619
0.140318
-0.0484028
0.136933
-0.0478198
0.133549
-0.0465851
0.130223
-0.0446919
0.127014
-0.0421561
0.123985
-0.0390243
0.121194
-0.0353737
0.118696
-0.0313076
0.116537
-0.0269481
0.114753
-0.0224258
0.113365
-0.0178697
0.112386
-0.0133977
0.111813
-0.00911012
0.111637
-0.00508555
0.111838
-0.00137991
0.11239
0.00197213
0.113264
0.00495423
0.114428
0.00756499
0.115847
0.00981427
0.117487
0.0117169
0.119315
0.013287
0.121297
0.0145488
0.0158716
0.12342
0.156119
-0.0367359
-0.158311
0.153695
-0.0388339
0.151074
-0.0407699
0.148271
-0.0424336
0.145304
-0.0437559
0.142196
-0.0446762
0.138981
-0.0451469
0.135682
-0.0451034
0.13234
-0.0444779
0.129008
-0.0432527
0.125738
-0.0414225
0.122588
-0.0390065
0.119616
-0.036052
0.116877
-0.0326341
0.11442
-0.0288509
0.112288
-0.024816
0.110512
-0.02065
0.109113
-0.0164705
0.108099
-0.0123842
0.10747
-0.00848088
0.107214
-0.00482989
0.107314
-0.00147991
0.107747
0.00153985
0.108484
0.0042168
0.109497
0.00655176
0.110756
0.00855556
0.11223
0.0102432
0.113888
0.0116288
0.1157
0.0127368
0.0139111
0.117661
0.151448
-0.0344559
-0.153728
0.148962
-0.0363476
0.146299
-0.0381071
0.143472
-0.0396068
0.140498
-0.0407818
0.137399
-0.0415774
0.134205
-0.0419523
0.130936
-0.0418346
0.127638
-0.0411796
0.124357
-0.0399724
0.121146
-0.038211
0.118057
-0.0359173
0.115144
-0.0331394
0.11246
-0.0299497
0.110049
-0.0264406
0.107951
-0.0227181
0.106194
-0.0188928
0.104795
-0.0150716
0.103762
-0.0113507
0.103091
-0.00781015
0.102772
-0.00451123
0.102788
-0.00149606
0.103117
0.00121087
0.103734
0.00360009
0.104612
0.00567421
0.105723
0.00744469
0.107039
0.00892644
0.108534
0.0101337
0.11018
0.0110912
0.0121147
0.111976
0.146607
-0.0321074
-0.148956
0.144073
-0.033814
0.14138
-0.0354136
0.138538
-0.0367651
0.135564
-0.0378073
0.13248
-0.0384934
0.129307
-0.0387798
0.126073
-0.0386003
0.12282
-0.037927
0.119594
-0.036746
0.116442
-0.0350592
0.113416
-0.0328913
0.110567
-0.03029
0.107942
-0.0273249
0.105584
-0.024083
0.103528
-0.0206621
0.101799
-0.0171635
0.100411
-0.013684
0.0993706
-0.0103099
0.0986727
-0.00711227
0.0983065
-0.00414505
0.098255
-0.00144458
0.0984972
0.000968733
0.0990093
0.00308799
0.0997664
0.00491712
0.100743
0.00646792
0.101915
0.00775501
0.103256
0.00879266
0.104741
0.00960565
0.0104804
0.106376
0.141588
-0.0297076
-0.143988
0.139021
-0.0312463
0.136308
-0.0327008
0.13346
-0.0339175
0.130492
-0.0348392
0.127427
-0.0354281
0.124281
-0.0356336
0.121086
-0.0354053
0.117882
-0.0347234
0.114713
-0.0335766
0.111624
-0.0319706
0.108665
-0.0299319
0.105883
-0.0275079
0.103323
-0.024765
0.101024
-0.0217842
0.0990174
-0.0186556
0.0973252
-0.0154712
0.0959594
-0.0123183
0.0949233
-0.00927373
0.0942116
-0.00640054
0.0938123
-0.00374577
0.0937084
-0.0013407
0.0938794
0.00079776
0.0943026
0.0026648
0.0949545
0.00426526
0.0958114
0.00561094
0.0968505
0.00671597
0.0980487
0.00759444
0.0993833
0.00827104
0.00900286
0.100861
0.13638
-0.0272716
-0.138816
0.133792
-0.0286582
0.131071
-0.0299796
0.128227
-0.0310728
0.125273
-0.0318859
0.122231
-0.0323857
0.119117
-0.0325195
0.115966
-0.0322543
0.112816
-0.0315731
0.109707
-0.0304684
0.106686
-0.0289494
0.103798
-0.027044
0.101089
-0.0247985
0.0985997
-0.0222758
0.0963664
-0.0195509
0.094417
-0.0167062
0.0927704
-0.0138246
0.0914364
-0.0109843
0.090416
-0.00825334
0.0897026
-0.00568715
0.0892835
-0.00332663
0.0891413
-0.00119851
0.0892558
0.000683279
0.089605
0.00231558
0.0901665
0.00370378
0.090918
0.00485941
0.0918381
0.0057959
0.0929056
0.00652695
0.0940998
0.00707682
0.00767425
0.0954284
0.130971
-0.0248141
-0.133428
0.128376
-0.0260635
0.125658
-0.0272613
0.122825
-0.0282399
0.119894
-0.0289552
0.11688
-0.0293718
0.113805
-0.0294449
0.110704
-0.0291532
0.107613
-0.0284817
0.104571
-0.027427
0.101623
-0.0260012
0.0988122
-0.0242332
0.0961814
-0.0221677
0.0937692
-0.0198636
0.0916083
-0.01739
0.0897234
-0.0148214
0.0881308
-0.012232
0.0868377
-0.00969117
0.0858432
-0.00725884
0.0851393
-0.00498324
0.0847124
-0.00289968
0.0845448
-0.00103088
0.0846163
0.000611769
0.0849055
0.00202639
0.0853906
0.00321861
0.0860506
0.00419941
0.0868652
0.00498137
0.0878145
0.00557759
0.0888798
0.00601153
0.00648503
0.090069
0.125343
-0.0223496
-0.127807
0.122755
-0.0234756
0.12005
-0.0245566
0.117239
-0.0254288
0.114338
-0.0260542
0.11136
-0.0263939
0.108333
-0.0264178
0.105289
-0.0261089
0.102263
-0.0254558
0.0992951
-0.0244588
0.0964265
-0.0231326
0.0936994
-0.021506
0.0911537
-0.019622
0.0888254
-0.0175352
0.0867439
-0.0153085
0.0849311
-0.0130086
0.0834005
-0.0107014
0.0821569
-0.00844759
0.0811976
-0.00629956
0.0805133
-0.00429889
0.0800894
-0.00247581
0.079908
-0.000849459
0.0799488
0.00057094
0.0801908
0.00178443
0.0806128
0.00279664
0.0811944
0.00361777
0.0819164
0.00425941
0.0827601
0.00473385
0.0837082
0.0050634
0.00542474
0.0847685
0.119478
-0.0198939
-0.121934
0.116909
-0.020907
0.11423
-0.0218769
0.111451
-0.0226505
0.108587
-0.0231904
0.105656
-0.0234623
0.102685
-0.023447
0.0997061
-0.0231299
0.0967539
-0.0225036
0.0938671
-0.021572
0.0910857
-0.0203513
0.0884498
-0.0188701
0.0859968
-0.017169
0.0837596
-0.0152981
0.0817649
-0.0133138
0.0800317
-0.0112753
0.0785706
-0.00924033
0.0773846
-0.00726157
0.0764691
-0.00538403
0.0758134
-0.00364324
0.0754024
-0.00206479
0.0752176
-0.000664648
0.0752388
0.000549771
0.075445
0.00157817
0.0758157
0.00242593
0.0763312
0.00310234
0.0769728
0.00361782
0.0777229
0.00398373
0.0785654
0.00422088
0.00448265
0.0795075
0.113349
-0.0174629
-0.11578
0.110813
-0.0183704
0.10817
-0.0192342
0.105434
-0.0199152
0.102619
-0.0203746
0.0997448
-0.0205885
0.0968405
-0.0205427
0.0939365
-0.0202259
0.0910675
-0.0196347
0.0882712
-0.0187757
0.085586
-0.0176661
0.0830499
-0.016334
0.0806977
-0.0148168
0.0785596
-0.01316
0.0766592
-0.0114135
0.0750129
-0.00962898
0.0736289
-0.00785635
0.072508
-0.00614065
0.071644
-0.00452005
0.0710253
-0.00302447
0.0706357
-0.00167528
0.0704567
-0.000485637
0.070468
0.00053853
0.0706488
0.00139736
0.0709789
0.0020958
0.0714391
0.00264211
0.0720115
0.00304546
0.0726791
0.0033161
0.0734269
0.00347307
0.00364827
0.0742613
0.106921
-0.0150731
-0.109311
0.10443
-0.0158795
0.101839
-0.0166426
0.0991579
-0.0172344
0.0964035
-0.0176203
0.0935998
-0.0177847
0.0907736
-0.0177165
0.0879561
-0.0174083
0.0851814
-0.0168601
0.0824863
-0.0160805
0.0799075
-0.0150873
0.0774807
-0.0139072
0.0752384
-0.0125745
0.0732078
-0.0111293
0.0714098
-0.00961545
0.0698579
-0.00807714
0.0685582
-0.00655667
0.0675095
-0.00509195
0.0667042
-0.00371475
0.0661296
-0.00244987
0.0657692
-0.00131485
0.065604
-0.000320405
0.0656137
0.0005288
0.0657779
0.00123314
0.0660768
0.00179698
0.0664914
0.00222745
0.0670044
0.00253244
0.0675996
0.00272096
0.0682626
0.00281005
0.00291189
0.068999
0.100148
-0.012742
-0.102479
0.0977195
-0.0134513
0.0951938
-0.0141169
0.092582
-0.0146226
0.0899042
-0.0149425
0.0871845
-0.015065
0.0844502
-0.0149823
0.0817325
-0.0146906
0.0790651
-0.0141927
0.0764835
-0.0134988
0.0740228
-0.0126267
0.0717164
-0.0116008
0.069594
-0.0104521
0.0676802
-0.00921549
0.0659929
-0.0079282
0.0645433
-0.0066275
0.0633351
-0.00534846
0.0623653
-0.0041222
0.0616252
-0.00297465
0.0611012
-0.00192589
0.0607765
-0.000990055
0.0606317
-0.000175702
0.060647
0.00051352
0.0608021
0.00107806
0.0610774
0.00152165
0.0614546
0.00185023
0.0619167
0.00207036
0.0624479
0.00218975
0.0630348
0.00222324
0.00226492
0.0636817
0.0929682
-0.0104896
-0.0952206
0.090621
-0.0111042
0.0881775
-0.0116733
0.085653
-0.012098
0.083069
-0.0123584
0.0804499
-0.0124459
0.0778238
-0.0123562
0.0752217
-0.0120885
0.0726769
-0.0116479
0.0702234
-0.0110453
0.0678945
-0.0102977
0.0657211
-0.00942745
0.0637302
-0.00846121
0.0619434
-0.00742871
0.0603761
-0.00636089
0.0590368
-0.00528819
0.0579273
-0.0042389
0.057043
-0.00323788
0.056374
-0.00230568
0.0559062
-0.00145814
0.0556225
-0.000706343
0.0555038
-5.69989e-05
0.0555303
0.000487075
0.055682
0.000926296
0.05594
0.00126368
0.0562862
0.001504
0.0567041
0.0016525
0.0571783
0.00171554
0.0576959
0.00170567
0.00170033
0.0582605
0.0852983
-0.00833875
-0.0874491
0.0830524
-0.00885828
0.0807125
-0.00933344
0.0782965
-0.00968201
0.0758266
-0.00988856
0.0733283
-0.00994766
0.0708301
-0.00985798
0.068363
-0.0096214
0.0659593
-0.00924423
0.0636515
-0.00873755
0.0614708
-0.00811696
0.0594453
-0.00740199
0.0575993
-0.00661516
0.0559514
-0.00578081
0.0545142
-0.00492375
0.053294
-0.00406796
0.0522905
-0.00323544
0.0514979
-0.0024453
0.0509055
-0.00171326
0.0504987
-0.00105135
0.0502604
-0.000468022
0.0501718
3.16414e-05
0.0502134
0.000445469
0.0503659
0.000773764
0.0506108
0.00101882
0.0509305
0.00118429
0.0513088
0.00127416
0.0517309
0.00129346
0.0521842
0.00125238
0.00121304
0.0526715
0.0770162
-0.00631515
-0.0790398
0.0748977
-0.00673978
0.072688
-0.00712373
0.0704062
-0.00740016
0.0680758
-0.00755823
0.0657236
-0.00759539
0.0633782
-0.00751262
0.0610703
-0.00731348
0.0588309
-0.00700489
0.0566907
-0.00659733
0.0546783
-0.00610452
0.052819
-0.00554274
0.051134
-0.00493015
0.049639
-0.00428579
0.0483439
-0.00362861
0.0472525
-0.00297659
0.046363
-0.00234598
0.0456685
-0.00175075
0.0451575
-0.00120231
0.0448156
-0.000709374
0.0446256
-0.00027809
0.0445695
8.77942e-05
0.0446283
0.000386629
0.0447835
0.000618552
0.0450172
0.000785167
0.0453124
0.000889077
0.0456534
0.000933137
0.0460258
0.000921114
0.0464173
0.000860868
0.000800403
0.0468299
0.0679435
-0.00445207
-0.0698066
0.0659862
-0.00478251
0.0639398
-0.00507728
0.0618253
-0.00528567
0.0596679
-0.00540087
0.057495
-0.00542249
0.0553354
-0.00535297
0.0532185
-0.00519665
0.051174
-0.00496031
0.0492298
-0.00465316
0.0474117
-0.00428646
0.045742
-0.00387303
0.0442384
-0.00342657
0.0429136
-0.00296099
0.0417748
-0.00248981
0.0408238
-0.00202555
0.0400572
-0.00157936
0.0394671
-0.0011607
0.0390421
-0.000777269
0.0387677
-0.000434955
0.0386275
-0.000137959
0.0386043
0.000111082
0.03868
0.000310917
0.038837
0.000461501
0.0390584
0.0005638
0.039328
0.000619491
0.0396307
0.000630455
0.0399524
0.000599331
0.0402815
0.000531776
0.000462788
0.0406191
0.0578008
-0.0027935
-0.0594593
0.0560494
-0.00303117
0.0542122
-0.00324003
0.052312
-0.00338546
0.050375
-0.00346391
0.0484287
-0.00347621
0.0465011
-0.0034253
0.0446199
-0.00331548
0.0428122
-0.00315262
0.0411031
-0.00294405
0.0395149
-0.00269822
0.0380661
-0.00242424
0.036771
-0.00213148
0.0356391
-0.0018291
0.034675
-0.0015257
0.0338785
-0.00122906
0.0332451
-0.000945966
0.0327665
-0.000682102
0.0324313
-0.000442085
0.0322258
-0.000229489
0.0321348
-4.69163e-05
0.032142
0.000103892
0.0322309
0.000222009
0.0323852
0.000307213
0.0325891
0.000359921
0.0328275
0.000381024
0.0330864
0.0003716
0.0333524
0.000333349
0.0336142
0.000269932
0.000204409
0.0338726
0.0461246
-0.00140431
-0.0475138
0.0446471
-0.00155365
0.0430897
-0.0016827
0.0414763
-0.001772
0.0398326
-0.00182018
0.0381848
-0.00182842
0.0365588
-0.00179934
0.0349798
-0.00173643
0.0334712
-0.00164404
0.0320542
-0.00152713
0.0307471
-0.00139107
0.0295642
-0.00124132
0.0285159
-0.00108323
0.0276086
-0.000921743
0.0268442
-0.000761351
0.0262211
-0.000605955
0.025734
-0.000458873
0.0253748
-0.000322857
0.0251328
-0.000200147
0.0249959
-9.25317e-05
0.0249503
-1.34012e-06
0.0249818
7.24308e-05
0.0250757
0.000128105
0.0252175
0.000165362
0.0253932
0.000184214
0.0255893
0.000184936
0.0257929
0.000167973
0.025992
0.000134258
0.0261762
8.57664e-05
3.48771e-05
0.0263457
0.0320872
-0.000398883
-0.0330927
0.0310034
-0.000469822
0.0298504
-0.000529682
0.0286491
-0.000570698
0.0274223
-0.000593361
0.0261929
-0.000599022
0.0249831
-0.000589599
0.0238139
-0.000567204
0.022704
-0.00053409
0.0216694
-0.000492578
0.0207233
-0.000444951
0.0198753
-0.000393356
0.0191318
-0.000339733
0.0184959
-0.000285775
0.0179674
-0.000232908
0.0175438
-0.000182313
0.0172199
-0.000134953
0.0169886
-9.16181e-05
0.0168415
-5.29684e-05
0.0167686
-1.96688e-05
0.0167596
7.64586e-06
0.0168022
2.98012e-05
0.0168853
4.50797e-05
0.016997
5.3659e-05
0.0171258
5.53728e-05
0.0172607
5.00852e-05
0.017391
3.7677e-05
0.0175071
1.8136e-05
0.017601
-8.19698e-06
-3.51371e-05
0.0176711
0.0141538
-0.0145526
0.0136839
0.0131543
0.0125836
0.0119902
0.0113912
0.0108016
0.0102344
0.00970028
0.0092077
0.00876275
0.0083694
0.00802967
0.00774389
0.00751098
0.00732867
0.00719372
0.0071021
0.00704913
0.00702946
0.00703711
0.00706691
0.00711199
0.00716565
0.00722102
0.00727111
0.00730878
0.00732692
0.00731872
0.00728358
0.351223
-0.178776
0.333834
-0.177221
0.317073
-0.17491
0.300815
-0.172328
0.284955
-0.169509
0.269407
-0.166464
0.254116
-0.163207
0.239051
-0.15975
0.224195
-0.156103
0.209543
-0.152272
0.195097
-0.148263
0.180865
-0.14408
0.166862
-0.139725
0.153106
-0.1352
0.139619
-0.130501
0.126425
-0.125622
0.113553
-0.120556
0.101034
-0.115288
0.0889021
-0.109802
0.0771952
-0.104073
0.0659551
-0.098071
0.0552303
-0.091754
0.0450766
-0.0850668
0.0355603
-0.0779329
0.0267639
-0.0702435
0.018795
-0.0618376
0.0118031
-0.0524675
0.0060167
-0.0417274
0.00183738
-0.0289134
-0.0127153
0.334627
-0.162158
0.318165
-0.160759
0.302121
-0.158867
0.286428
-0.156634
0.271026
-0.154107
0.255882
-0.15132
0.240976
-0.148301
0.226297
-0.145071
0.211841
-0.141647
0.197611
-0.138042
0.183616
-0.134268
0.169868
-0.130332
0.156384
-0.126241
0.143182
-0.121997
0.130282
-0.117601
0.117709
-0.113049
0.105486
-0.108333
0.093641
-0.103444
0.082204
-0.0983649
0.0712078
-0.0930769
0.0606892
-0.0875524
0.0506903
-0.0817551
0.04126
-0.0756365
0.032457
-0.0691299
0.0243545
-0.062141
0.017049
-0.0545321
0.0106753
-0.0460938
0.0054376
-0.0364897
0.00167937
-0.0251551
-0.0110359
0.317357
-0.146421
0.301794
-0.145196
0.286487
-0.14356
0.271428
-0.141575
0.256601
-0.13928
0.241997
-0.136717
0.227614
-0.133917
0.213451
-0.130908
0.199514
-0.127711
0.185815
-0.124343
0.172366
-0.120819
0.159183
-0.117149
0.146283
-0.113341
0.133685
-0.109399
0.121409
-0.105325
0.109475
-0.101115
0.0979077
-0.0967656
0.0867307
-0.0922666
0.075971
-0.0876052
0.065658
-0.0827639
0.0558244
-0.0777188
0.0465079
-0.0724386
0.0377521
-0.0668808
0.0296099
-0.0609876
0.0221472
-0.0546783
0.015451
-0.0478358
0.0096424
-0.0402852
0.0049024
-0.0317497
0.00152361
-0.0217763
-0.00951228
0.300884
-0.131448
0.286049
-0.13036
0.271385
-0.128896
0.256904
-0.127093
0.242613
-0.124989
0.228522
-0.122626
0.214641
-0.120037
0.200983
-0.11725
0.187561
-0.114289
0.174391
-0.111172
0.161488
-0.107916
0.148869
-0.10453
0.136552
-0.101024
0.124554
-0.0974014
0.112894
-0.0936648
0.101591
-0.0898127
0.0906664
-0.0858407
0.080141
-0.0817412
0.0700389
-0.077503
0.0603859
-0.0731109
0.0512114
-0.0685443
0.0425485
-0.0637757
0.0344365
-0.0587688
0.0269228
-0.0534739
0.0200666
-0.0478222
0.0139462
-0.0417154
0.00866928
-0.0350083
0.0043941
-0.0274745
0.00136754
-0.0187498
-0.00814474
0.28516
-0.117109
0.270921
-0.116122
0.256813
-0.114788
0.242856
-0.113136
0.229072
-0.111206
0.215482
-0.109035
0.202104
-0.106658
0.188955
-0.104102
0.176055
-0.101389
0.163421
-0.0985378
0.151069
-0.0955638
0.139016
-0.0924777
0.12728
-0.0892874
0.115876
-0.0859979
0.104822
-0.082611
0.0941359
-0.0791261
0.0838346
-0.0755394
0.073938
-0.0718446
0.0644671
-0.068032
0.0554447
-0.0640885
0.0468967
-0.0599964
0.038853
-0.055732
0.0313485
-0.0512642
0.0244255
-0.0465509
0.0181374
-0.0415341
0.0125537
-0.0361317
0.00776955
-0.0302241
0.00392174
-0.0236267
0.00121764
-0.0160457
-0.0069271
0.270157
-0.103308
0.256439
-0.102405
0.242835
-0.101184
0.229374
-0.0996749
0.216084
-0.0979156
0.20299
-0.0959415
0.190115
-0.0937835
0.177481
-0.0914673
0.165106
-0.0890141
0.153009
-0.0864412
0.141208
-0.0837622
0.129718
-0.0809873
0.118554
-0.078124
0.107733
-0.0751766
0.0972688
-0.0721471
0.0871777
-0.069035
0.0774756
-0.0658373
0.0681795
-0.0625485
0.059308
-0.0591605
0.0508814
-0.055662
0.0429228
-0.0520377
0.0354585
-0.0482677
0.0285199
-0.0443256
0.0221449
-0.0401759
0.0163809
-0.0357701
0.0112897
-0.0310405
0.00695437
-0.0258888
0.00349269
-0.020165
0.00107893
-0.0136319
-0.00584818
0.255879
-0.0899915
0.242642
-0.0891671
0.229517
-0.0880586
0.216538
-0.0866956
0.203735
-0.0851129
0.191136
-0.0833429
0.178766
-0.0814135
0.166647
-0.0793477
0.154797
-0.0771647
0.143236
-0.0748797
0.131978
-0.0725049
0.12104
-0.0700494
0.110436
-0.0675196
0.100179
-0.0649196
0.090283
-0.0622511
0.0807617
-0.0595137
0.0716294
-0.056705
0.0629012
-0.0538203
0.0545934
-0.0508527
0.046724
-0.0477926
0.0393136
-0.0446272
0.0323856
-0.0413398
0.0259681
-0.0379081
0.0200948
-0.0343026
0.014808
-0.0304833
0.010162
-0.0263945
0.00622933
-0.0219562
0.00311117
-0.0170469
0.000954574
-0.0114753
-0.0048936
0.24234
-0.0771334
0.229566
-0.0763926
0.21691
-0.075403
0.204408
-0.0741936
0.192091
-0.0727962
0.179988
-0.0712394
0.168122
-0.0695475
0.156515
-0.0677407
0.145186
-0.0658356
0.134151
-0.0638454
0.123427
-0.0617804
0.113026
-0.0596485
0.102962
-0.0574553
0.0932465
-0.0552042
0.0838921
-0.0528967
0.0749109
-0.0505324
0.0663153
-0.0481094
0.0581188
-0.0456238
0.0503359
-0.0430697
0.0429825
-0.0404392
0.0360768
-0.0377216
0.02964
-0.034903
0.0236969
-0.031965
0.0182777
-0.0288834
0.0134198
-0.0256254
0.00917111
-0.0221458
0.00559487
-0.0183799
0.00277819
-0.0142302
0.000845931
-0.00954307
-0.00404767
0.229552
-0.0647266
0.217237
-0.0640772
0.205049
-0.0632154
0.193025
-0.0621689
0.181194
-0.0609655
0.169584
-0.0596298
0.158219
-0.0581825
0.147119
-0.0566406
0.136302
-0.0550181
0.125782
-0.0533259
0.115575
-0.0515729
0.105692
-0.0497654
0.0961447
-0.0479082
0.0869445
-0.0460041
0.0781021
-0.0440542
0.0696281
-0.0420585
0.0615337
-0.0400151
0.0538308
-0.0379209
0.0465321
-0.0357711
0.0396521
-0.0335592
0.0332069
-0.0312764
0.0272154
-0.0289115
0.0216998
-0.0264494
0.0166871
-0.0238706
0.0122105
-0.0211488
0.00831222
-0.0182475
0.00504769
-0.0151154
0.00249233
-0.0116748
0.000753016
-0.00780375
-0.00329466
0.217521
-0.0527734
0.205667
-0.0522236
0.19395
-0.0514983
0.182404
-0.0506227
0.171058
-0.0496202
0.15994
-0.0485111
0.14907
-0.0473125
0.138467
-0.0460382
0.128149
-0.0446995
0.118128
-0.0433054
0.108418
-0.041863
0.0990303
-0.0403775
0.0899746
-0.0388525
0.0812609
-0.0372904
0.0728987
-0.0356921
0.0648978
-0.0340575
0.057268
-0.0323852
0.0500197
-0.0306727
0.0431647
-0.028916
0.0367156
-0.0271101
0.030687
-0.0252478
0.0250958
-0.0233203
0.0199621
-0.0213157
0.0153099
-0.0192184
0.0111689
-0.0170078
0.00757665
-0.0146553
0.00458187
-0.0121206
0.00225048
-0.00934343
0.000674984
-0.00622825
-0.00261967
0.206236
-0.04128
0.194849
-0.0408365
0.183605
-0.0402545
0.172538
-0.0395552
0.161675
-0.0387576
0.151042
-0.0378776
0.140658
-0.0369285
0.130541
-0.0359212
0.120706
-0.0348645
0.111165
-0.0337653
0.101932
-0.0326292
0.0930142
-0.0314601
0.0844226
-0.0302608
0.0761655
-0.0290333
0.0682515
-0.0277781
0.0606892
-0.0264952
0.0534875
-0.0251835
0.0466559
-0.0238411
0.0402047
-0.0224648
0.0341456
-0.0210509
0.0284916
-0.0195938
0.023258
-0.0180868
0.018463
-0.0165206
0.0141282
-0.0148836
0.0102804
-0.01316
0.0069531
-0.011328
0.0041897
-0.00935723
0.00204843
-0.00720216
0.000610471
-0.00479029
-0.0020092
0.195675
-0.0302529
0.184758
-0.0299202
0.173989
-0.0294853
0.163398
-0.0289648
0.153014
-0.0283727
0.142857
-0.0277209
0.132947
-0.0270191
0.123301
-0.0262752
0.113933
-0.0254956
0.104853
-0.0246854
0.0960719
-0.0238485
0.0875998
-0.022988
0.0794447
-0.0221057
0.0716145
-0.0212031
0.0641171
-0.0202806
0.05696
-0.0193382
0.0501516
-0.0183751
0.0437002
-0.0173897
0.0376155
-0.0163801
0.0319078
-0.0153432
0.0265892
-0.0142753
0.0216737
-0.0131713
0.0171778
-0.0120247
0.0131211
-0.010827
0.00952795
-0.00956683
0.00642874
-0.00822876
0.00386251
-0.006791
0.0018814
-0.00522105
0.000557854
-0.00346674
-0.00145135
0.1858
-0.0196966
0.175356
-0.0194763
0.16506
-0.0191893
0.154942
-0.0188468
0.145027
-0.0184579
0.135337
-0.0180305
0.125889
-0.0175708
0.116697
-0.0170839
0.107776
-0.0165741
0.099135
-0.0160446
0.0907844
-0.0154979
0.0827324
-0.014936
0.0749869
-0.0143602
0.067555
-0.0137712
0.0604439
-0.0131695
0.0536607
-0.012555
0.0472128
-0.0119271
0.0411081
-0.011285
0.0353552
-0.0106273
0.029964
-0.00995198
0.0249454
-0.00925668
0.0203123
-0.00853815
0.0160798
-0.0077922
0.0122662
-0.00701337
0.00889373
-0.00619436
0.00599022
-0.00532524
0.00359133
-0.00439211
0.00174445
-0.00337417
0.000515435
-0.00223773
-0.000935912
0.176565
-0.00961239
0.166593
-0.0095037
0.156766
-0.00936242
0.147113
-0.00919415
0.137659
-0.00900339
0.128422
-0.00879389