/*--------------------------------*- C++ -*----------------------------------*\
  =========                 |
  \\      /  F ield         | OpenFOAM: The Open Source CFD Toolbox
   \\    /   O peration     | Website:  https://openfoam.org
    \\  /    A nd           | Version:  12
     \\/     M anipulation  |
\*---------------------------------------------------------------------------*/
FoamFile
{
    format      ascii;
    class       volScalarField;
    location    "160";
    object      pMean;
}
// * * * * * * * * * * * * * * * * * * * * * * * * * * * * * * * * * * * * * //

dimensions      [0 2 -2 0 0 0 0];

internalField   nonuniform List<scalar> 
6750
(
8.47213e-05
5.43595e-05
-1.18542e-06
-0.000187493
-0.00112375
0.00188017
0.00185803
0.00174901
0.00150184
0.00117503
0.00391159
0.00386842
0.00375654
0.00357597
0.003445
0.0060034
0.0059255
0.00581958
0.00569568
0.0056382
0.00806218
0.00794058
0.00782555
0.00773045
0.00771138
0.0100085
0.00983888
0.00970438
0.00962144
0.00962188
0.0117935
0.0115746
0.0114171
0.0113399
0.0113518
0.0133875
0.0131202
0.0129398
0.0128665
0.0128868
0.0147721
0.0144588
0.0142575
0.014188
0.0142151
0.0159373
0.015582
0.0153628
0.0152974
0.0153301
0.0168804
0.0164885
0.0162551
0.0161939
0.016231
0.0176058
0.0171834
0.0169399
0.016883
0.0169233
0.0181242
0.0176774
0.0174285
0.0173753
0.0174175
0.0184511
0.0179857
0.0177374
0.0176863
0.0177287
0.0186015
0.0181303
0.0178874
0.0178344
0.0178752
0.0186017
0.0181305
0.0178876
0.0178346
0.0178755
0.0184518
0.0179864
0.0177381
0.017687
0.0177295
0.0181254
0.0176786
0.0174297
0.0173765
0.0174187
0.0176075
0.0171851
0.0169416
0.0168847
0.016925
0.0168825
0.0164906
0.0162572
0.0161961
0.0162332
0.0159398
0.0155845
0.0153654
0.0152999
0.0153327
0.014775
0.0144617
0.0142605
0.014191
0.0142181
0.0133907
0.0131235
0.0129431
0.0128699
0.0128902
0.0117971
0.0115782
0.0114208
0.0113436
0.0113556
0.0100124
0.00984279
0.00970834
0.00962546
0.00962593
0.00806627
0.00794471
0.00782975
0.00773471
0.00771565
0.00600767
0.00592981
0.00582394
0.0057001
0.0056426
0.00391597
0.00387283
0.00376101
0.00358047
0.00344945
0.00188462
0.00186251
0.00175352
0.00150636
0.00117945
8.91899e-05
5.8847e-05
3.32079e-06
-0.000183003
-0.00111932
-0.00668364
-0.00619075
-0.00491187
-0.00398304
-0.00332091
-0.00279666
-0.00238179
-0.00205859
-0.00180087
-0.00160458
-0.00147215
-0.00135466
-0.00126954
-0.00121819
-0.00120291
-0.00122938
-0.00130381
-0.0014292
-0.00160847
-0.00184511
-0.00213994
-0.00241998
-0.00273302
-0.00306565
-0.00340238
-0.00373389
-0.00405254
-0.00433942
-0.00458408
-0.00494404
-0.00306188
-0.00239094
-0.00170303
-0.00137676
-0.00119971
-0.00109191
-0.00104888
-0.00105659
-0.00109273
-0.00116888
-0.00127657
-0.00134865
-0.00140776
-0.0014493
-0.00147521
-0.00149521
-0.0015232
-0.00157314
-0.00165861
-0.00178686
-0.00195234
-0.00221177
-0.00249447
-0.00281409
-0.00316454
-0.00353683
-0.0039245
-0.00430948
-0.00464036
-0.00498368
-0.000642897
-0.000495933
-0.000222049
-0.00010167
-4.77456e-05
-4.69617e-05
-0.000108123
-0.000218448
-0.000365484
-0.000580493
-0.000824775
-0.00105223
-0.00128266
-0.00150465
-0.00171247
-0.00190611
-0.00208933
-0.00226848
-0.002451
-0.00264405
-0.00285259
-0.003075
-0.00331603
-0.00357605
-0.00385269
-0.00414272
-0.00444708
-0.00475575
-0.00498966
-0.00513354
0.000860914
0.000663562
0.00078403
0.000850909
0.000854027
0.000794214
0.000668222
0.000489952
0.000260269
-6.51179e-05
-0.000415114
-0.000777102
-0.0011603
-0.00154851
-0.0019298
-0.00229554
-0.00263986
-0.00295998
-0.00325587
-0.00353011
-0.00378618
-0.0040225
-0.00424743
-0.00446563
-0.00467984
-0.00489243
-0.00511119
-0.00533439
-0.0054589
-0.00536284
0.00205477
0.00173997
0.00179497
0.00180506
0.00173917
0.00160451
0.0014021
0.0011424
0.000815297
0.000381928
-7.59277e-05
-0.000567627
-0.00109021
-0.00162439
-0.00215381
-0.0026639
-0.00314238
-0.00358038
-0.00397286
-0.00431871
-0.0046199
-0.00487946
-0.00510359
-0.00529961
-0.00547402
-0.00563317
-0.00579039
-0.00595127
-0.0059907
-0.00566639
0.00312877
0.00278886
0.00279127
0.00273395
0.00259391
0.00238235
0.00210051
0.00175397
0.00132067
0.000783194
0.000213868
-0.000403761
-0.00105775
-0.00172641
-0.00238969
-0.00302846
-0.00362587
-0.00416882
-0.00464887
-0.00506247
-0.00541052
-0.00569725
-0.00592944
-0.00611586
-0.00626528
-0.00638676
-0.00649828
-0.0066109
-0.00658093
-0.00604873
0.00411381
0.00378452
0.00373735
0.00361388
0.00340359
0.00311781
0.00275816
0.00232442
0.00178187
0.00114575
0.000464904
-0.000274177
-0.00105336
-0.00184883
-0.00263727
-0.00339581
-0.00410393
-0.00474531
-0.00530886
-0.00578922
-0.00618634
-0.00650455
-0.00675152
-0.00693717
-0.00707178
-0.00716646
-0.0072432
-0.00731693
-0.00722665
-0.00650977
0.00502772
0.00472979
0.00463808
0.00445106
0.00417311
0.00381418
0.0033773
0.00285453
0.00220406
0.00147328
0.000681384
-0.000175257
-0.00107446
-0.00199054
-0.00289728
-0.0037687
-0.00458132
-0.00531618
-0.00596011
-0.00650627
-0.00695386
-0.00730714
-0.00757436
-0.00776632
-0.00789437
-0.00797153
-0.00802269
-0.00806598
-0.0079233
-0.00704619
0.00588955
0.00563679
0.00550399
0.00525424
0.00490903
0.00447767
0.00396207
0.00334581
0.00259434
0.00176827
0.0008662
-0.000104699
-0.00111973
-0.00215147
-0.00317109
-0.00414995
-0.00506212
-0.00588651
-0.00660825
-0.00721934
-0.00771834
-0.00810945
-0.0084013
-0.00860534
-0.0087338
-0.00880115
-0.00883493
-0.00885486
-0.00866661
-0.00765371
0.00671396
0.00651424
0.00634209
0.00602973
0.00561688
0.00511356
0.00451766
0.00380275
0.00295741
0.0020331
0.0010223
-6.02256e-05
-0.00118797
-0.00233168
-0.0034602
-0.00454256
-0.00555073
-0.00646183
-0.00725963
-0.00793517
-0.0084865
-0.00891777
-0.00923786
-0.00945873
-0.00959345
-0.0096574
-0.00968104
-0.00968396
-0.00945542
-0.00832857
0.00751146
0.00736946
0.00715953
0.00678335
0.00630145
0.00572595
0.005048
0.00423177
0.0032967
0.00227157
0.00115285
-3.972e-05
-0.0012782
-0.00253147
-0.00376624
-0.00494951
-0.00605143
-0.00704757
-0.00792055
-0.00866062
-0.0092654
-0.00973898
-0.0100905
-0.0103322
-0.0104779
-0.010544
-0.0105635
-0.0105548
-0.0102902
-0.00906815
0.00829086
0.00820951
0.00796286
0.00752154
0.00696923
0.00632014
0.00555554
0.00463999
0.00361513
0.00248708
0.00126054
-4.14656e-05
-0.00138974
-0.00275132
-0.00409095
-0.0053738
-0.00656839
-0.00764897
-0.00859711
-0.00940239
-0.0100621
-0.0105802
-0.010966
-0.0112323
-0.0113931
-0.0114662
-0.0114865
-0.0114708
-0.0111737
-0.00987148
0.00906067
0.00904179
0.00875929
0.00825119
0.00762755
0.00690099
0.00604315
0.00503439
0.00391547
0.00268262
0.00134776
-6.40381e-05
-0.00152221
-0.00299197
-0.00443624
-0.00581851
-0.00710584
-0.00827125
-0.0092954
-0.0101672
-0.0108837
-0.0114488
-0.011872
-0.0121662
-0.012346
-0.0124302
-0.0124561
-0.0124375
-0.0121107
-0.0107397
0.00982915
0.00987354
0.0095562
0.00897936
0.00828243
0.00747497
0.00651839
0.00541946
0.00420122
0.00286139
0.00141674
-0.000106223
-0.00167546
-0.00325441
-0.00480426
-0.00628697
-0.00766819
-0.00891984
-0.0100217
-0.0109622
-0.011738
-0.0123529
-0.0128166
-0.0131423
-0.0133449
-0.0134442
-0.0134799
-0.0134623
-0.0131078
-0.0116762
0.0106033
0.0107149
0.0103632
0.00971529
0.00894113
0.0080464
0.00699014
0.00579906
0.00447648
0.00302669
0.00146963
-0.000166996
-0.0018496
-0.00353991
-0.00519748
-0.00678277
-0.00826018
-0.00960055
-0.0107829
-0.011795
-0.0126331
-0.0133013
-0.013809
-0.0141699
-0.0143991
-0.0145177
-0.0145675
-0.0145545
-0.0141741
-0.0126872
0.0113906
0.0115772
0.0111923
0.0104703
0.00961193
0.00862006
0.00746742
0.00617737
0.00474534
0.00318172
0.00150846
-0.000245518
-0.00204501
-0.00385009
-0.00561875
-0.00731002
-0.00888707
-0.0103197
-0.0115862
-0.0126737
-0.0135783
-0.0143037
-0.0148596
-0.0152597
-0.0155198
-0.0156619
-0.0157301
-0.0157253
-0.0153208
-0.0137816
0.0122016
0.0124739
0.0120559
0.0112547
0.0103041
0.00920632
0.00795723
0.00655972
0.00501244
0.00332985
0.00153523
-0.000341128
-0.00226239
-0.00418701
-0.00607147
-0.00787343
-0.00955485
-0.0110846
-0.01244
-0.0136078
-0.0145837
-0.0153713
-0.0159803
-0.0164246
-0.01672
-0.0168905
-0.0169818
-0.0169891
-0.016562
-0.0149717
0.0130536
0.0134188
0.0129689
0.0120782
0.0110239
0.00981959
0.00846639
0.00695262
0.00528303
0.00347465
0.00155193
-0.000453383
-0.00250285
-0.00455331
-0.00655978
-0.00847858
-0.0102705
-0.0119034
-0.0133539
-0.0146081
-0.0156614
-0.0165171
-0.017185
-0.017679
-0.0180153
-0.0182195
-0.0183394
-0.0183631
-0.0179152
-0.0162739
0.0139675
0.0144257
0.013945
0.0129565
0.011785
0.0104721
0.00900259
0.00736319
0.00556276
0.00361997
0.00156057
-0.000582127
-0.00276802
-0.00495241
-0.00708883
-0.0091323
-0.0110425
-0.0127862
-0.0143393
-0.0156874
-0.0168254
-0.0177564
-0.0184902
-0.0190408
-0.0194246
-0.0196688
-0.0198233
-0.0198686
-0.0194018
-0.0177092
0.014964
0.0155184
0.0150048
0.0139047
0.0126067
0.0111756
0.00957712
0.00780077
0.00585842
0.00377014
0.00156314
-0.000727606
-0.00306035
-0.00538884
-0.00766516
-0.00984305
-0.011881
-0.013745
-0.0154101
-0.0168612
-0.0180927
-0.0191077
-0.0199159
-0.0205312
-0.0209702
-0.0212621
-0.0214584
-0.0215315
-0.0210491
-0.0193049
0.0160732
0.0167275
0.0161724
0.0149437
0.013513
0.0119465
0.0102037
0.00827628
0.0061778
0.00392993
0.00156153
-0.000890708
-0.0033834
-0.0058687
-0.00829731
-0.0106217
-0.0127993
-0.0147951
-0.0165834
-0.0181485
-0.0194846
-0.0205941
-0.0214869
-0.0221767
-0.0226805
-0.0230294
-0.0232773
-0.0233855
-0.0228913
-0.0210959
0.0173375
0.0180847
0.0174757
0.0161087
0.0145287
0.0128057
0.0108998
0.00880294
0.00653012
0.00410471
0.0015574
-0.00107333
-0.00374241
-0.00640044
-0.00899673
-0.0114825
-0.0138142
-0.015956
-0.0178813
-0.019574
-0.0210277
-0.0222447
-0.0232346
-0.0240109
-0.0245913
-0.0250085
-0.0253185
-0.0254718
-0.0249721
-0.0231278
0.0188103
0.0196406
0.0189631
0.0174423
0.0156856
0.0137806
0.0116872
0.00939715
0.0069264
0.00430039
0.0015518
-0.00127902
-0.00414527
-0.00699599
-0.00977913
-0.0124448
-0.0149485
-0.0172536
-0.0193329
-0.0211697
-0.0227572
-0.0240974
-0.0251997
-0.0260776
-0.0267491
-0.0272486
-0.0276345
-0.027846
-0.0273499
-0.0254614
0.0205693
0.0214671
0.0207024
0.0189955
0.0170269
0.014907
0.0125944
0.0100796
0.00738002
0.00452338
0.00154456
-0.00151412
-0.00460404
-0.00767272
-0.0106668
-0.0135355
-0.0162334
-0.0187233
-0.0209775
-0.0229788
-0.02472
-0.026203
-0.0274367
-0.0284347
-0.0292153
-0.0298152
-0.0302942
-0.0305802
-0.0301016
-0.0281786
0.0227361
0.0236682
0.0227784
0.0208387
0.0186129
0.0162338
0.013659
0.0108771
0.00790739
0.00478027
0.00153306
-0.00178975
-0.0051377
-0.00845679
-0.0116926
-0.0147935
-0.0177136
-0.0204152
-0.0228705
-0.0250618
-0.0269817
-0.0286319
-0.030021
-0.0311624
-0.0320751
-0.0327981
-0.0333923
-0.0337734
-0.0333325
-0.0313933
0.0254711
0.0263921
0.0253145
0.0230774
0.0205305
0.017831
0.0149336
0.0118258
0.0085292
0.00507716
0.00150992
-0.00212563
-0.00577711
-0.00938917
-0.0129066
-0.0162773
-0.0194554
-0.0224033
-0.025093
-0.0275068
-0.0296373
-0.0314858
-0.0330609
-0.0343755
-0.0354492
-0.0363238
-0.0370621
-0.0375662
-0.0371937
-0.0352699
0.0290604
0.0298652
0.0284993
0.0258704
0.022912
0.0198023
0.0164943
0.0129754
0.00927024
0.00541612
0.00145672
-0.0025584
-0.00657502
-0.0105368
-0.0143885
-0.0180784
-0.0215615
-0.0248008
-0.0277691
-0.0304491
-0.032833
-0.034922
-0.0367243
-0.0382524
-0.039526
-0.0405888
-0.0415053
-0.0421689
-0.0419102
-0.0400581
0.0339841
0.034456
0.0326158
0.0294481
0.0259425
0.0222886
0.0184399
0.0143856
0.0101546
0.00578915
0.00133696
-0.0031495
-0.00761445
-0.0120014
-0.0162561
-0.0203288
-0.0241766
-0.0277651
-0.0310685
-0.0340707
-0.0367647
-0.0391514
-0.0412383
-0.0430374
-0.0445684
-0.0458753
-0.0470222
-0.0479011
-0.0478437
-0.0461821
0.0411619
0.0409103
0.0383008
0.0343903
0.0301328
0.0257087
0.0210819
0.0162558
0.0112715
0.00618116
0.00103997
-0.00409499
-0.00916644
-0.0141192
-0.0189022
-0.0234704
-0.0277857
-0.0318184
-0.0355457
-0.0389527
-0.0420363
-0.0447997
-0.047242
-0.0493736
-0.0512127
-0.052799
-0.0541915
-0.055299
-0.0555313
-0.0542734
0.0538445
0.0518516
0.0475808
0.0423386
0.0368169
0.0311137
0.0252213
0.0191752
0.0130356
0.00686556
0.000725045
-0.00532948
-0.0112465
-0.0169806
-0.0224931
-0.0277522
-0.032732
-0.037412
-0.0417784
-0.0458209
-0.0495289
-0.0528964
-0.0559329
-0.0586409
-0.0610275
-0.0631167
-0.0649563
-0.0665277
-0.06746
-0.06705
-0.00329573
-0.00225107
-0.000470955
0.00097797
0.00222401
0.00339988
0.00453482
0.00563627
0.00671347
0.00777593
0.00883255
0.00989236
0.0109651
0.0120613
0.0131919
0.0143701
0.0156116
0.0169358
0.0183648
0.0199245
0.0216491
0.0235829
0.0257822
0.0283229
0.0313095
0.0348956
0.0392878
0.0447617
0.0515184
0.0604574
0.00109525
0.00216839
0.00337659
0.00440721
0.00534761
0.00625699
0.00714647
0.0080205
0.00888649
0.00975265
0.0106271
0.011518
0.0124342
0.0133852
0.0143814
0.0154356
0.016563
0.0177822
0.0191157
0.0205916
0.0222469
0.0241301
0.0263054
0.0288617
0.0319239
0.0356751
0.040378
0.0464218
0.0542924
0.0649296
0.00360506
0.00456803
0.00550805
0.00636139
0.00719781
0.00803514
0.00887109
0.00970715
0.0105486
0.0114016
0.0122727
0.0131692
0.014099
0.015071
0.0160958
0.0171858
0.0183565
0.0196266
0.0210197
0.0225657
0.0243039
0.0262862
0.0285828
0.0312911
0.0345493
0.0385578
0.0436121
0.0501568
0.0588457
0.0707058
0.00581843
0.00667138
0.00749628
0.00826839
0.00903896
0.00981948
0.0106098
0.0114132
0.0122351
0.0130816
0.013959
0.0148744
0.0158354
0.0168513
0.0179327
0.0190925
0.0203468
0.021715
0.0232221
0.0248998
0.0267896
0.0289465
0.0314453
0.0343889
0.0379229
0.042257
0.0477003
0.0547095
0.0640258
0.0767032
0.00788617
0.00864344
0.00937635
0.0100751
0.0107837
0.0115137
0.0122662
0.0130448
0.0138542
0.0146999
0.0155879
0.0165247
0.0175184
0.018578
0.0197147
0.020942
0.0222764
0.0237387
0.0253551
0.027159
0.0291944
0.0315192
0.0342117
0.0373796
0.0411739
0.0458113
0.0516093
0.0590317
0.0689006
0.0823129
0.00977727
0.0104485
0.0111022
0.0117387
0.012398
0.01309
0.0138161
0.014579
0.0153831
0.0162335
0.0171357
0.0180962
0.019123
0.0202252
0.0214143
0.022704
0.0241117
0.0256588
0.0273726
0.0292882
0.0314512
0.0339219
0.0367817
0.0401418
0.0441578
0.0490523
0.0551511
0.0629284
0.0732857
0.0873952
0.0114855
0.0120793
0.012665
0.0132504
0.0138707
0.0145341
0.0152414
0.0159951
0.0167991
0.0176581
0.0185772
0.019563
0.020623
0.0217668
0.0230057
0.0243539
0.0258292
0.0274537
0.0292555
0.0312708
0.0335467
0.0361453
0.03915
0.0426751
0.0468798
0.0519914
0.0583437
0.0664219
0.0771935
0.0919214
0.0130041
0.0135279
0.0140552
0.0145985
0.0151879
0.0158297
0.0165241
0.0172732
0.0180805
0.0189502
0.0198873
0.0208981
0.0219901
0.0231727
0.0244576
0.0258592
0.0273956
0.0290894
0.0309694
0.0330727
0.0354475
0.0381572
0.0412869
0.0449531
0.0493179
0.0546126
0.0611774
0.069508
0.0806203
0.0958649
0.0143236
0.0147847
0.0152622
0.0157714
0.0163369
0.0169625
0.0176483
0.018396
0.0192085
0.0200897
0.0210444
0.0220785
0.0231997
0.0244173
0.0257431
0.0271916
0.0287813
0.0305353
0.0324828
0.0346616
0.0371207
0.0399246
0.0431597
0.0469441
0.0514421
0.0568882
0.0636282
0.0721664
0.0835533
0.09921
0.0154368
0.0158429
0.016279
0.0167614
0.0173085
0.0179224
0.0186028
0.0193509
0.0201694
0.0210617
0.0220323
0.0230872
0.0242339
0.0254817
0.0268424
0.0283308
0.0299656
0.03177
0.0337739
0.0360154
0.0385441
0.0414254
0.0447468
0.0486274
0.0532335
0.0588015
0.0656822
0.0743865
0.0859849
0.101969
0.0163411
0.0167006
0.0171037
0.0175655
0.0180989
0.0187045
0.0193816
0.0201312
0.0209555
0.0218576
0.022842
0.0239144
0.0250823
0.0263549
0.0277443
0.0292652
0.0309364
0.0327816
0.0348307
0.0371224
0.0397068
0.0426496
0.0460391
0.0499956
0.0546864
0.0603495
0.0673396
0.0761719
0.0879255
0.10417
0.0170394
0.0173615
0.0177393
0.018186
0.0187096
0.0193095
0.0199848
0.0207361
0.0215655
0.0224757
0.0234712
0.0245575
0.025742
0.0270341
0.0284457
0.0299917
0.0316911
0.0335675
0.0356513
0.0379814
0.040608
0.0435975
0.0470386
0.0510522
0.0558067
0.0615409
0.0686126
0.0775389
0.0894021
0.105847
0.0175401
0.0178343
0.0181943
0.0186307
0.0191477
0.0197438
0.0204181
0.0211711
0.0220043
0.0229207
0.0239244
0.0250208
0.0262174
0.0275236
0.0289512
0.0305154
0.0322349
0.0341337
0.0362423
0.0385996
0.0412563
0.044279
0.0477566
0.0518106
0.0566098
0.0623939
0.069523
0.0785134
0.0904504
0.107038
0.0178564
0.0181325
0.0184812
0.0189113
0.0194243
0.0200183
0.0206922
0.0214463
0.0222823
0.0232027
0.0242116
0.0253147
0.0265191
0.0278343
0.0292721
0.0308478
0.0325801
0.0344932
0.0366175
0.0389921
0.0416679
0.0447115
0.0482122
0.0522916
0.057119
0.0629343
0.0700996
0.0791285
0.0911057
0.107796
0.018005
0.0182724
0.0186158
0.0190429
0.0195542
0.0201472
0.020821
0.0215758
0.0224131
0.0233355
0.024347
0.0254532
0.0266614
0.0279809
0.0294237
0.0310049
0.0327434
0.0346632
0.036795
0.0391779
0.0418628
0.0449165
0.0484282
0.0525198
0.0573607
0.0631907
0.0703734
0.0794194
0.0914095
0.108164
0.0180053
0.0182726
0.0186161
0.0190432
0.0195544
0.0201475
0.0208213
0.021576
0.0224133
0.0233357
0.0243472
0.0254534
0.0266616
0.0279811
0.0294239
0.031005
0.0327435
0.0346634
0.0367952
0.0391781
0.0418629
0.0449166
0.0484284
0.05252
0.0573608
0.0631909
0.0703735
0.0794195
0.0914096
0.108164
0.0178571
0.0181332
0.018482
0.018912
0.0194251
0.020019
0.0206929
0.021447
0.022283
0.0232034
0.0242123
0.0253153
0.0265197
0.0278348
0.0292727
0.0308483
0.0325806
0.0344936
0.0366179
0.0389925
0.0416683
0.0447119
0.0482127
0.0522921
0.0571195
0.0629347
0.0700998
0.0791286
0.0911061
0.107797
0.0175414
0.0178356
0.0181956
0.0186319
0.0191489
0.019745
0.0204193
0.0211722
0.0220055
0.0229218
0.0239254
0.0250218
0.0262184
0.0275245
0.0289521
0.0305162
0.0322357
0.0341344
0.036243
0.0386003
0.041257
0.0442797
0.0477574
0.0518114
0.0566106
0.0623946
0.0695235
0.0785138
0.0904511
0.107039
0.0170412
0.0173632
0.017741
0.0181877
0.0187113
0.0193112
0.0199864
0.0207377
0.021567
0.0224772
0.0234726
0.0245589
0.0257433
0.0270353
0.0284469
0.0299929
0.0316921
0.0335685
0.0356523
0.0379823
0.0406089
0.0435985
0.0470396
0.0510533
0.0558077
0.061542
0.0686135
0.0775397
0.0894031
0.105848
0.0163433
0.0167028
0.0171059
0.0175676
0.018101
0.0187066
0.0193837
0.0201332
0.0209574
0.0218595
0.0228438
0.0239162
0.0250839
0.0263565
0.0277458
0.0292666
0.0309378
0.0327829
0.034832
0.0371237
0.039708
0.0426508
0.0460404
0.0499968
0.0546876
0.0603509
0.0673409
0.0761732
0.0879269
0.104172
0.0154395
0.0158455
0.0162817
0.016764
0.017311
0.0179249
0.0186052
0.0193533
0.0201717
0.0210639
0.0220345
0.0230893
0.0242358
0.0254835
0.0268442
0.0283326
0.0299672
0.0317716
0.0337754
0.0360169
0.0385456
0.0414269
0.0447482
0.0486288
0.053235
0.0588033
0.0656841
0.0743883
0.0859867
0.10197
0.0143267
0.0147878
0.0152652
0.0157744
0.0163398
0.0169654
0.0176511
0.0183988
0.0192112
0.0200923
0.0210468
0.0220809
0.0232019
0.0244194
0.0257451
0.0271936
0.0287833
0.0305372
0.0324847
0.0346635
0.0371225
0.0399263
0.0431613
0.0469456
0.0514439
0.0568904
0.0636308
0.0721688
0.0835557
0.0992114
0.0130076
0.0135314
0.0140586
0.0146018
0.0151912
0.0158329
0.0165272
0.0172763
0.0180835
0.0189531
0.0198901
0.0209007
0.0219926
0.0231752
0.02446
0.0258615
0.0273978
0.0290916
0.0309716
0.0330748
0.0354495
0.0381591
0.0412887
0.0449549
0.04932
0.0546153
0.0611807
0.069511
0.0806228
0.0958664
0.0114893
0.0120831
0.0126687
0.013254
0.0138742
0.0145376
0.0152448
0.0159984
0.0168024
0.0176612
0.0185802
0.0195659
0.0206258
0.0217695
0.0230083
0.0243565
0.0258317
0.0274561
0.0292579
0.0312732
0.0335489
0.0361474
0.039152
0.0426771
0.0468822
0.0519947
0.0583476
0.0664255
0.0771961
0.091923
0.00978134
0.0104526
0.0111062
0.0117427
0.0124018
0.0130938
0.0138197
0.0145826
0.0153866
0.0162369
0.0171389
0.0180994
0.0191261
0.0202282
0.0214171
0.0227068
0.0241144
0.0256615
0.0273752
0.0292908
0.0314536
0.0339243
0.0367839
0.040144
0.0441606
0.0490561
0.0551556
0.0629324
0.0732884
0.0873966
0.00789043
0.0086477
0.00938056
0.0100792
0.0107878
0.0115176
0.0122701
0.0130486
0.013858
0.0147036
0.0155914
0.0165281
0.0175217
0.0185812
0.0197178
0.020945
0.0222794
0.0237416
0.0253579
0.0271618
0.0291971
0.0315218
0.0342142
0.0373822
0.0411771
0.0458156
0.0516143
0.0590361
0.0689032
0.0823141
0.00582281
0.00667578
0.00750063
0.00827269
0.00904319
0.00982365
0.0106139
0.0114172
0.012239
0.0130854
0.0139628
0.014878
0.0158389
0.0168547
0.017936
0.0190957
0.0203499
0.0217181
0.0232252
0.0249028
0.0267924
0.0289493
0.0314481
0.034392
0.0379266
0.0422618
0.0477055
0.0547138
0.0640283
0.0767041
0.00360947
0.0045725
0.00551251
0.00636581
0.00720218
0.00803945
0.00887534
0.00971132
0.0105527
0.0114056
0.0122767
0.0131731
0.0141028
0.0150747
0.0160993
0.0171893
0.0183598
0.0196299
0.021023
0.0225689
0.024307
0.0262892
0.0285859
0.0312947
0.0345534
0.0385627
0.0436171
0.0501606
0.0588477
0.0707066
0.00109964
0.00217292
0.00338114
0.00441171
0.00535206
0.00626139
0.00715081
0.00802479
0.00889072
0.00975682
0.0106312
0.011522
0.0124382
0.013389
0.0143851
0.0154393
0.0165666
0.0177857
0.0191191
0.020595
0.0222502
0.0241333
0.0263088
0.0288657
0.0319283
0.0356799
0.0403823
0.0464246
0.0542939
0.0649305
-0.00329112
-0.00224625
-0.000466231
0.000982564
0.00222851
0.0034043
0.00453918
0.00564055
0.00671767
0.00778005
0.00883659
0.00989632
0.010969
0.0120651
0.0131956
0.0143737
0.0156151
0.0169392
0.018368
0.0199277
0.0216522
0.0235861
0.0257855
0.028327
0.0313138
0.0348997
0.0392909
0.0447633
0.0515193
0.0604585
0.0538461
0.0518535
0.0475824
0.0423399
0.0368182
0.0311151
0.0252226
0.0191763
0.0130364
0.0068658
0.00072472
-0.00533042
-0.0112481
-0.0169828
-0.0224958
-0.0277554
-0.0327357
-0.0374161
-0.0417828
-0.0458256
-0.0495338
-0.0529015
-0.055938
-0.0586461
-0.0610327
-0.063122
-0.0649616
-0.0665332
-0.0674658
-0.0670561
0.0411627
0.0409108
0.0383014
0.0343913
0.030134
0.0257098
0.0210828
0.0162564
0.0112716
0.00618072
0.00103901
-0.00409646
-0.00916842
-0.0141216
-0.0189052
-0.0234738
-0.0277895
-0.0318227
-0.0355503
-0.0389576
-0.0420414
-0.044805
-0.0472474
-0.0493791
-0.0512182
-0.0528045
-0.0541969
-0.0553044
-0.0555366
-0.0542786
0.0339853
0.0344575
0.0326175
0.02945
0.0259441
0.0222899
0.0184407
0.0143858
0.0101542
0.00578828
0.00133561
-0.0031513
-0.00761667
-0.012004
-0.0162591
-0.0203322
-0.0241805
-0.0277694
-0.0310732
-0.0340758
-0.0367702
-0.0391572
-0.0412443
-0.0430436
-0.0445747
-0.0458815
-0.0470282
-0.0479069
-0.0478491
-0.0461871
0.0290629
0.0298677
0.0285016
0.0258723
0.0229133
0.0198029
0.0164943
0.0129748
0.00926913
0.00541461
0.00145486
-0.00256057
-0.00657749
-0.0105396
-0.0143916
-0.0180819
-0.0215654
-0.0248052
-0.027774
-0.0304544
-0.0328389
-0.0349284
-0.036731
-0.0382594
-0.0395332
-0.0405959
-0.0415121
-0.0421753
-0.0419159
-0.040063
0.0254744
0.026395
0.0253168
0.0230787
0.0205309
0.0178307
0.0149326
0.0118244
0.00852732
0.00507498
0.00150752
-0.00212821
-0.00577987
-0.00939214
-0.0129098
-0.0162808
-0.0194593
-0.0224077
-0.0250979
-0.0275123
-0.0296433
-0.0314924
-0.0330679
-0.0343829
-0.0354569
-0.0363315
-0.0370696
-0.0375734
-0.0372001
-0.0352753
0.0227398
0.023671
0.0227801
0.0208392
0.0186126
0.0162328
0.0136573
0.0108749
0.00790489
0.00477754
0.0015302
-0.0017927
-0.00514074
-0.00845996
-0.011696
-0.0147971
-0.0177176
-0.0204196
-0.0228754
-0.0250672
-0.0269877
-0.0286383
-0.0300279
-0.0311697
-0.0320827
-0.0328059
-0.0334001
-0.033781
-0.0333396
-0.0313995
0.0205728
0.0214696
0.0207037
0.018996
0.0170263
0.0149056
0.0125924
0.0100771
0.00737718
0.00452033
0.00154141
-0.00151733
-0.0046073
-0.00767605
-0.0106703
-0.0135392
-0.0162374
-0.0187277
-0.0209823
-0.022984
-0.0247257
-0.0262092
-0.0274434
-0.0284417
-0.0292227
-0.0298227
-0.030302
-0.0305878
-0.0301091
-0.0281856
0.0188131
0.0196426
0.0189643
0.0174425
0.015685
0.0137792
0.0116852
0.00939461
0.00692349
0.00429725
0.00154854
-0.00128234
-0.00414862
-0.00699939
-0.00978263
-0.0124485
-0.0149524
-0.0172578
-0.0193375
-0.0211747
-0.0227626
-0.0241032
-0.0252059
-0.0260841
-0.026756
-0.0272558
-0.0276419
-0.0278535
-0.0273575
-0.0254689
0.0173402
0.0180869
0.0174772
0.0161092
0.0145282
0.0128045
0.0108979
0.00880053
0.0065273
0.00410162
0.00155417
-0.00107664
-0.00374575
-0.00640382
-0.00900017
-0.0114861
-0.013818
-0.01596
-0.0178857
-0.0195787
-0.0210327
-0.0222501
-0.0232403
-0.024017
-0.0245977
-0.0250153
-0.0253255
-0.0254791
-0.0249797
-0.0231355
0.0160758
0.0167297
0.0161738
0.0149445
0.0135128
0.0119455
0.0102021
0.00827405
0.00617514
0.00392697
0.0015584
-0.000893929
-0.00338665
-0.00587197
-0.00830063
-0.0106251
-0.0128029
-0.0147989
-0.0165874
-0.0181529
-0.0194892
-0.0205991
-0.0214922
-0.0221823
-0.0226866
-0.0230358
-0.0232839
-0.0233925
-0.0228987
-0.0211035
0.0149666
0.0155207
0.0150064
0.0139055
0.0126068
0.0111748
0.00957565
0.00779872
0.00585592
0.00376732
0.00156013
-0.00073069
-0.00306346
-0.00539194
-0.00766829
-0.00984626
-0.0118844
-0.0137485
-0.0154138
-0.0168651
-0.0180969
-0.0191123
-0.0199208
-0.0205364
-0.0209759
-0.0212682
-0.0214649
-0.0215384
-0.0210563
-0.0193123
0.0139703
0.0144282
0.0139468
0.0129575
0.0117853
0.0104715
0.00900137
0.00736133
0.00556043
0.00361733
0.00155774
-0.000585031
-0.00277094
-0.00495532
-0.00709175
-0.00913528
-0.0110455
-0.0127894
-0.0143427
-0.0156911
-0.0168293
-0.0177606
-0.0184948
-0.0190458
-0.01943
-0.0196745
-0.0198295
-0.0198753
-0.0194089
-0.0177165
0.0130565
0.0134215
0.0129709
0.0120794
0.0110244
0.00981935
0.00846535
0.00695094
0.00528089
0.00347221
0.00154932
-0.000456063
-0.00250553
-0.00455599
-0.00656248
-0.00848135
-0.0102734
-0.0119064
-0.0133571
-0.0146115
-0.015665
-0.016521
-0.0171893
-0.0176837
-0.0180205
-0.0182251
-0.0183455
-0.0183697
-0.0179222
-0.016281
0.0122047
0.0124768
0.012058
0.0112561
0.0103046
0.00920617
0.00795639
0.00655827
0.00501055
0.00332766
0.00153287
-0.000343544
-0.00226482
-0.00418946
-0.00607395
-0.00787599
-0.00955752
-0.0110874
-0.0124429
-0.013611
-0.0145871
-0.015375
-0.0159844
-0.0164291
-0.016725
-0.016896
-0.0169878
-0.0169955
-0.0165688
-0.0149786
0.0113939
0.0115802
0.0111946
0.0104718
0.00961267
0.00862005
0.00746687
0.00617623
0.00474375
0.00317984
0.00150642
-0.00024764
-0.00204718
-0.00385231
-0.00562104
-0.00731241
-0.00888958
-0.0103224
-0.011589
-0.0126767
-0.0135816
-0.0143073
-0.0148636
-0.0152642
-0.0155247
-0.0156674
-0.015736
-0.0157317
-0.0153275
-0.0137883
0.0106067
0.010718
0.0103657
0.00971706
0.00894215
0.00804672
0.00698984
0.00579828
0.00447526
0.00302518
0.00146794
-0.000168809
-0.00185151
-0.00354191
-0.00519959
-0.00678501
-0.00826256
-0.00960309
-0.0107856
-0.0117979
-0.0126364
-0.0133048
-0.013813
-0.0141743
-0.014404
-0.0145231
-0.0145733
-0.0145607
-0.0141806
-0.0126938
0.00983266
0.00987681
0.00955891
0.00898138
0.00828375
0.00747566
0.00651845
0.00541907
0.00420041
0.00286028
0.00141541
-0.000107726
-0.00167711
-0.0032562
-0.00480621
-0.00628907
-0.00767047
-0.00892231
-0.0100244
-0.0109652
-0.0117412
-0.0123565
-0.0128205
-0.0131467
-0.0133497
-0.0134496
-0.0134857
-0.0134685
-0.0131142
-0.0116827
0.0090643
0.00904523
0.00876221
0.00825349
0.0076292
0.00690207
0.00604366
0.00503442
0.00391508
0.00268191
0.00134678
-6.52355e-05
-0.00152361
-0.00299357
-0.00443803
-0.00582052
-0.00710805
-0.00827368
-0.00929807
-0.0101702
-0.010887
-0.0114524
-0.011876
-0.0121706
-0.012351
-0.0124355
-0.0124619
-0.0124436
-0.012117
-0.010746
0.00829463
0.00821311
0.007966
0.00752407
0.00697115
0.00632158
0.00555649
0.00464043
0.00361516
0.00248676
0.00125991
-4.23626e-05
-0.00139089
-0.00275272
-0.00409259
-0.0053757
-0.00657055
-0.00765139
-0.00859981
-0.00940539
-0.0100654
-0.0105839
-0.0109701
-0.0112368
-0.0113981
-0.0114716
-0.0114923
-0.0114768
-0.01118
-0.00987771
0.00751532
0.0073732
0.00716288
0.00678617
0.00630374
0.00572777
0.00504935
0.00423262
0.00329713
0.00227163
0.00115256
-4.03217e-05
-0.00127911
-0.00253268
-0.00376775
-0.00495134
-0.00605356
-0.00705001
-0.00792331
-0.00866371
-0.00926884
-0.00974279
-0.0100947
-0.0103369
-0.0104829
-0.0105494
-0.0105693
-0.0105608
-0.0102964
-0.00907433
0.00671794
0.00651811
0.0063456
0.00603279
0.0056196
0.00511574
0.00451939
0.00380399
0.00295823
0.00203352
0.00102235
-6.05368e-05
-0.00118863
-0.00233271
-0.00346158
-0.0045443
-0.00555284
-0.0064643
-0.00726246
-0.00793836
-0.00849006
-0.0089217
-0.00924219
-0.00946348
-0.00959853
-0.0096628
-0.00968677
-0.00969
-0.00946162
-0.00833473
0.00589364
0.00564077
0.00550767
0.00525752
0.004912
0.0044802
0.00396414
0.00334742
0.00259553
0.00176905
0.000866576
-0.000104726
-0.00112016
-0.00215231
-0.00317235
-0.00415164
-0.00506423
-0.00588903
-0.00661117
-0.00722265
-0.00772204
-0.00811353
-0.00840576
-0.00861018
-0.00873897
-0.00880667
-0.00884071
-0.00886089
-0.00867277
-0.00765985
0.0050319
0.00473387
0.00464188
0.00445452
0.00417629
0.00381702
0.00337966
0.00285649
0.0022056
0.00147441
0.000682074
-0.000175008
-0.00107466
-0.00199121
-0.00289843
-0.00377033
-0.00458343
-0.00531876
-0.00596313
-0.00650972
-0.00695771
-0.00731136
-0.00757894
-0.00777123
-0.00789963
-0.00797709
-0.00802854
-0.008072
-0.00792939
-0.00705228
0.00411808
0.00378867
0.00374133
0.00361764
0.00340703
0.0031209
0.00276084
0.00232672
0.00178374
0.0011472
0.000465895
-0.000273664
-0.00105335
-0.00184934
-0.00263831
-0.0033974
-0.00410606
-0.00474795
-0.00531199
-0.00579279
-0.00619033
-0.00650891
-0.00675622
-0.0069422
-0.00707712
-0.00717202
-0.00724892
-0.00732274
-0.00723266
-0.00651582
0.00313308
0.0027931
0.00279536
0.00273791
0.0025976
0.00238564
0.00210348
0.00175658
0.00132286
0.000784944
0.000215146
-0.000402997
-0.00105754
-0.00172677
-0.00239064
-0.00303003
-0.00362802
-0.00417154
-0.00465211
-0.00506618
-0.00541465
-0.00570175
-0.00593426
-0.00612097
-0.00627064
-0.00639234
-0.00650399
-0.00661679
-0.0065869
-0.00605468
0.00205925
0.00174426
0.00179923
0.00180917
0.00174296
0.00160806
0.00140536
0.0011453
0.000817778
0.000383961
-7.43814e-05
-0.000566628
-0.00108981
-0.00162461
-0.00215469
-0.00266544
-0.00314456
-0.00358317
-0.00397621
-0.00432255
-0.00462416
-0.00488407
-0.00510852
-0.0053048
-0.00547942
-0.00563872
-0.00579603
-0.00595705
-0.0059964
-0.00567219
0.000865435
0.00066804
0.00078839
0.000855054
0.000858021
0.000797998
0.00067172
0.0004931