/*--------------------------------*- C++ -*----------------------------------*\
  =========                 |
  \\      /  F ield         | OpenFOAM: The Open Source CFD Toolbox
   \\    /   O peration     | Website:  https://openfoam.org
    \\  /    A nd           | Version:  12
     \\/     M anipulation  |
\*---------------------------------------------------------------------------*/
FoamFile
{
    format      ascii;
    class       volScalarField;
    location    "160";
    object      pPrime2Mean;
}
// * * * * * * * * * * * * * * * * * * * * * * * * * * * * * * * * * * * * * //

dimensions      [0 4 -4 0 0 0 0];

internalField   nonuniform List<scalar> 
6750
(
0.00798538
0.00797326
0.00795759
0.00794373
0.0079306
0.00799382
0.00797742
0.00795161
0.00792094
0.007889
0.00803697
0.00801661
0.00798306
0.00793999
0.00789377
0.00811344
0.00809172
0.00805557
0.00800839
0.00795786
0.00821897
0.0081991
0.0081659
0.00812207
0.00807515
0.00834636
0.00833115
0.0083055
0.00827088
0.00823365
0.00848648
0.00847806
0.00846338
0.00844229
0.00841936
0.0086297
0.00862943
0.00862794
0.00862324
0.00861782
0.00876702
0.00877551
0.00878818
0.0088012
0.00881494
0.0088909
0.008908
0.00893465
0.00896526
0.00899823
0.00899565
0.00902059
0.00906
0.00910679
0.0091576
0.0090776
0.00910912
0.00915925
0.00921971
0.00928575
0.00913503
0.00917156
0.00922979
0.00930067
0.00937842
0.00916793
0.0092077
0.00927116
0.0093488
0.00943426
0.00917763
0.00921886
0.00928465
0.00936538
0.00945441
0.00916635
0.00920736
0.00927282
0.00935317
0.00944179
0.00913405
0.00917316
0.00923563
0.00931213
0.00939634
0.00907873
0.00911417
0.00917077
0.00923975
0.00931542
0.0089994
0.00902947
0.00907738
0.00913526
0.00919845
0.00889643
0.00891961
0.00895634
0.00899999
0.00904731
0.00877185
0.00878698
0.00881062
0.0088377
0.00886673
0.00862964
0.00863604
0.00864551
0.00865478
0.00866435
0.00847573
0.00847335
0.0084686
0.0084601
0.00845047
0.00831789
0.00830739
0.00828951
0.00826472
0.00823769
0.00816525
0.00814803
0.00811932
0.00808116
0.00804002
0.00802752
0.00800575
0.00796966
0.0079225
0.00787195
0.00791391
0.00789041
0.00785155
0.00780126
0.00774739
0.00783164
0.00780961
0.00777352
0.00772752
0.00767825
0.00778498
0.00776706
0.00773893
0.00770552
0.00767075
0.00777514
0.00776178
0.00774423
0.00772821
0.00771321
0.00788978
0.00782636
0.00770513
0.00753532
0.0073199
0.00706098
0.00675946
0.00641626
0.00603468
0.00561971
0.00517666
0.00471614
0.00424827
0.00378453
0.00333642
0.00291419
0.002526
0.00217741
0.00187092
0.00160616
0.00138058
0.00119318
0.00103764
0.000909603
0.000805046
0.00072015
0.000651756
0.000597011
0.000553835
0.000526792
0.00789415
0.00778966
0.00763674
0.00744092
0.00720374
0.00692663
0.00661148
0.00626121
0.00588022
0.00547345
0.00504568
0.00460732
0.00416629
0.00373191
0.00331318
0.00291802
0.00255278
0.00222181
0.00192743
0.00167023
0.00144943
0.00126023
0.00110179
0.000969857
0.000860799
0.000771499
0.000699039
0.000640491
0.000592793
0.000556442
0.0078652
0.00772969
0.00755205
0.00733733
0.0070853
0.00679735
0.00647562
0.00612354
0.00574606
0.00534757
0.00493407
0.00451476
0.00409626
0.00368626
0.0032919
0.00291931
0.00257339
0.00225759
0.00197389
0.00172283
0.00150377
0.00131527
0.00115487
0.00101975
0.000906949
0.00081362
0.000737057
0.000674455
0.000623429
0.000584315
0.00781994
0.00766418
0.00746871
0.0072405
0.0069796
0.00668652
0.00636318
0.00601315
0.00564135
0.00525133
0.00485055
0.00444641
0.00404492
0.00365277
0.00327598
0.00291969
0.00258795
0.00228368
0.00200863
0.00176337
0.00154752
0.00136011
0.00119917
0.00106237
0.000947166
0.000850881
0.000770719
0.000704034
0.000649132
0.000609906
0.00776948
0.00759933
0.00739031
0.00715179
0.00688518
0.00659003
0.006268
0.00592231
0.00555732
0.00517614
0.00478672
0.00439496
0.00400663
0.00362778
0.00326386
0.00291951
0.00259842
0.00230323
0.00203554
0.00179589
0.00158396
0.00139875
0.00123861
0.00110147
0.000984964
0.000886551
0.000803437
0.00073282
0.000674526
0.000635327
0.00772169
0.00754047
0.00732135
0.00707501
0.00680422
0.00650882
0.00618953
0.00584918
0.00549115
0.00511853
0.00473881
0.00435695
0.00397856
0.00360939
0.00325465
0.00291885
0.00260561
0.00231748
0.00205597
0.00182152
0.00161373
0.00143145
0.00127306
0.0011365
0.00101951
0.000919636
0.000834094
0.000760258
0.00069915
0.000660299
0.00768162
0.00749169
0.00726465
0.0070126
0.00673887
0.00644393
0.00612799
0.00579308
0.00544141
0.00507649
0.00470466
0.00433038
0.00395915
0.00359659
0.00324797
0.00291792
0.00261015
0.00232728
0.00207077
0.00184094
0.00163718
0.00145817
0.00130205
0.00116668
0.00104977
0.000949
0.000861654
0.000785317
0.000721966
0.000683751
0.00765338
0.00745643
0.00722298
0.00696636
0.00669091
0.00639652
0.00608387
0.00575384
0.00540751
0.00504899
0.00468306
0.00431405
0.00394739
0.00358875
0.00324361
0.00291686
0.00261248
0.00233321
0.00208051
0.00185458
0.00165457
0.00147884
0.00132526
0.00119149
0.0010752
0.00097393
0.000885344
0.000807264
0.000742186
0.000704673
0.00764073
0.00743785
0.00719873
0.00693805
0.00666127
0.00636753
0.00605761
0.00573143
0.0053893
0.00503542
0.00467328
0.00430721
0.00394265
0.00358544
0.00324137
0.00291574
0.00261284
0.00233561
0.00208554
0.00186271
0.00166598
0.00149339
0.00134246
0.0012106
0.00109537
0.000994213
0.000904986
0.000825596
0.000759173
0.000722228
0.00764736
0.0074391
0.00719436
0.00692958
0.00665128
0.00635813
0.00604993
0.00572615
0.00538684
0.00503554
0.00467498
0.00430948
0.00394458
0.00358639
0.00324115
0.00291459
0.00261138
0.0023347
0.00208607
0.00186545
0.00167145
0.00150172
0.00135345
0.00122374
0.00110989
0.00100945
0.000920098
0.000839773
0.000772286
0.000735673
0.00767704
0.0074634
0.00721255
0.00694291
0.00666231
0.00636911
0.00606164
0.00573864
0.00540047
0.00504951
0.00468816
0.00432077
0.00395304
0.00359149
0.00324287
0.0029134
0.00260815
0.00233054
0.00208216
0.00186284
0.00167091
0.00150371
0.00135803
0.00123066
0.0011186
0.00101933
0.000930205
0.000849264
0.00078094
0.000744368
0.00773397
0.00751431
0.00725629
0.00698051
0.00669645
0.00640202
0.00609378
0.00576986
0.00543082
0.00507778
0.00471312
0.00434124
0.00396812
0.00360078
0.00324653
0.00291217
0.00260315
0.00232314
0.00207378
0.0018548
0.00166429
0.00149923
0.00135606
0.00123118
0.0011212
0.00102346
0.000934827
0.000853536
0.000784624
0.000747816
0.00782297
0.00759606
0.00732938
0.00704572
0.00675676
0.00645892
0.00614794
0.00582127
0.00547891
0.00512117
0.00475044
0.00437129
0.00399006
0.00361437
0.00325219
0.00291088
0.00259631
0.00231238
0.00206082
0.00184123
0.00165146
0.00148816
0.00134737
0.00122503
0.00111732
0.0010212
0.000933435
0.000852123
0.000782934
0.000745672
0.00794991
0.00771377
0.0074364
0.00714247
0.00684621
0.00654268
0.00622659
0.00589477
0.00554626
0.00518086
0.00480099
0.0044115
0.00401923
0.00363248
0.00325994
0.00290953
0.00258755
0.00229815
0.00204312
0.00182198
0.0016323
0.00147036
0.00133178
0.00121196
0.00110668
0.00101234
0.000925681
0.00084473
0.000775673
0.000737824
0.00812183
0.00787393
0.00758322
0.007276
0.00696958
0.00665736
0.00633304
0.00599307
0.00563501
0.00525849
0.00486597
0.00446268
0.00405614
0.00365541
0.0032699
0.00290811
0.00257675
0.00228025
0.00202048
0.00179684
0.00160662
0.00144567
0.00130908
0.00119175
0.00108893
0.000996573
0.00091137
0.000831272
0.000762899
0.000724499
0.00834768
0.00808491
0.00777772
0.00745355
0.0071333
0.00680848
0.0064722
0.00611998
0.00574812
0.0053562
0.00494688
0.00452585
0.00410143
0.00368352
0.00328221
0.00290659
0.0025638
0.00225852
0.0019927
0.00176559
0.00157417
0.00141378
0.00127895
0.00116408
0.00106382
0.000973745
0.000890513
0.000811961
0.000745056
0.000706444
0.00863915
0.00835785
0.00803055
0.0076848
0.00734603
0.00700367
0.00665062
0.00628053
0.00588938
0.00547674
0.00504557
0.00460223
0.00415589
0.00371723
0.00329701
0.00290491
0.00254854
0.00223279
0.0019596
0.00172802
0.00153465
0.00137434
0.00124102
0.00112856
0.00103118
0.00094394
0.000863465
0.000787499
0.000723235
0.000685213
0.00901206
0.00870786
0.008356
0.00798252
0.00761905
0.00725293
0.0068761
0.00648102
0.0060636
0.00562355
0.00516441
0.00469336
0.0042204
0.00375693
0.00331439
0.00290301
0.00253081
0.00220285
0.00192096
0.00168388
0.0014878
0.00132709
0.00119511
0.00108518
0.000991111
0.000907642
0.000831183
0.000759418
0.000699613
0.000663687
0.0094881
0.00915519
0.00877285
0.00836349
0.00796716
0.00756869
0.00715862
0.00672926
0.00627664
0.00580086
0.00530628
0.00480101
0.00429587
0.00380298
0.00333438
0.0029008
0.00251048
0.00216851
0.00187652
0.0016329
0.00143343
0.00127196
0.00114137
0.0010344
0.000944487
0.00086619
0.000795788
0.000730795
0.000678218
0.000646882
0.0100973
0.00972741
0.00930632
0.00884976
0.0084093
0.00796621
0.00751074
0.00703497
0.00653567
0.00601372
0.0054745
0.00492712
0.00438326
0.00385571
0.00335703
0.00289818
0.00248741
0.00212963
0.00182613
0.00157499
0.00137156
0.00120931
0.00108062
0.000977718
0.000893662
0.000822818
0.00076162
0.000707508
0.000666404
0.00064355
0.0108816
0.0104629
0.00999124
0.00947162
0.00897023
0.00846585
0.00794829
0.00741029
0.00684949
0.00626808
0.00567276
0.00507376
0.00448357
0.00391553
0.00338239
0.00289506
0.00246147
0.00208608
0.00176979
0.0015103
0.00130268
0.00114011
0.00101459
0.000917947
0.000842845
0.000783582
0.000736697
0.000700234
0.000677302
0.000669188
0.0119001
0.0114145
0.0108755
0.0102697
0.00968385
0.00909475
0.00849226
0.0078705
0.00722872
0.00657089
0.00590528
0.00524327
0.00459796
0.00398287
0.00341053
0.0028913
0.00243246
0.0020378
0.00170766
0.00143942
0.00122796
0.00106637
0.000946541
0.000860115
0.000799508
0.000759047
0.000735504
0.000727772
0.000733806
0.000751069
0.0132324
0.0126539
0.0120247
0.011299
0.0105956
0.00988882
0.00916928
0.00843452
0.00768614
0.00693034
0.00617702
0.0054384
0.00472777
0.00405821
0.00344142
0.00288669
0.0024002
0.00198483
0.00164026
0.00136353
0.00114955
0.000991648
0.000882098
0.000812809
0.000776325
0.000767149
0.000782275
0.000821958
0.000873877
0.000934272
0.0149788
0.0142748
0.0135231
0.0126319
0.0117644
0.0108931
0.0100125
0.00912547
0.00823711
0.00735613
0.00649371
0.00566225
0.00487438
0.00414189
0.00347485
0.00288082
0.0023644
0.00192727
0.0015684
0.00128458
0.00107103
0.000921867
0.000830529
0.000790137
0.00079416
0.000837393
0.000916885
0.00103368
0.0011564
0.00128547
0.0172564
0.0163859
0.0154742
0.0143585
0.0132634
0.0121619
0.011061
0.00997018
0.00889922
0.00785915
0.00686155
0.00591787
0.00503886
0.00423383
0.00351016
0.00287282
0.00232433
0.00186492
0.00149287
0.00120502
0.000997419
0.000865817
0.000806022
0.000813841
0.000884975
0.0010149
0.00119883
0.00143602
0.00166262
0.00189105
0.0201858
0.0190988
0.0179799
0.0165646
0.0151574
0.0137447
0.01235
0.0109931
0.00968884
0.00844976
0.00728659
0.00620828
0.00522213
0.00433353
0.00354586
0.00286063
0.00227769
0.00179572
0.00141259
0.00112586
0.000933388
0.000833875
0.000827101
0.000913377
0.0010921
0.00135925
0.00170513
0.00212
0.00249006
0.00285308
0.0238316
0.0224641
0.021067
0.0192678
0.0174623
0.0156597
0.013901
0.012218
0.0106301
0.00915044
0.00778796
0.00654813
0.00543376
0.00444541
0.00358173
0.00284025
0.00221803
0.00171238
0.00132138
0.00104432
0.000882212
0.000838088
0.000916933
0.00112438
0.00146372
0.00193027
0.0025061
0.00316459
0.00373468
0.00427563
0.0284465
0.0266098
0.0247596
0.0225096
0.0202642
0.0180371
0.0158765
0.0138209
0.0118951
0.0101163
0.00849517
0.00703703
0.00574267
0.00460954
0.00363305
0.00280791
0.0021294
0.00159442
0.00120207
0.00095395
0.000853999
0.000908026
0.00112259
0.00150294
0.00204992
0.00275526
0.00359671
0.0045447
0.00543339
0.006292
0.0356104
0.0332412
0.030846
0.0280698
0.0252705
0.0224447
0.019658
0.0169734
0.0144403
0.0120974
0.00997026
0.00807219
0.00640686
0.00497135
0.00375946
0.00276465
0.00198235
0.00141116
0.00105359
0.000915125
0.00100178
0.00131729
0.00186008
0.00261883
0.00357044
0.00467677
0.00588918
0.0071777
0.00830836
0.00943535
0.0579365
0.0536874
0.0488605
0.0439516
0.0390554
0.0341715
0.0294088
0.0248718
0.0206462
0.0167987
0.0133721
0.0103853
0.00783849
0.00572124
0.00401955
0.00272265
0.00182752
0.00134136
0.00127971
0.00166273
0.00250946
0.00382959
0.00561495
0.00783471
0.0104334
0.0133316
0.0164298
0.0197025
0.023062
0.0261011
0.00790531
0.00786481
0.00782898
0.00779553
0.00776622
0.00774308
0.00772891
0.00772686
0.00774024
0.0077726
0.00782783
0.00791035
0.0080253
0.00817893
0.00837884
0.00863462
0.00895867
0.00936789
0.00988578
0.0105454
0.0113938
0.012497
0.0139443
0.0158456
0.0183267
0.021524
0.0255844
0.0309477
0.039068
0.0626878
0.00785967
0.00783037
0.00780551
0.00778553
0.00777393
0.00777221
0.00778228
0.00780649
0.00784768
0.00790918
0.00799495
0.00810971
0.00825912
0.00845008
0.00869115
0.00899312
0.00937016
0.0098414
0.0104331
0.011182
0.0121394
0.0133769
0.0149899
0.0170944
0.0198219
0.0233311
0.027878
0.0339913
0.0428155
0.0677925
0.00786759
0.00786209
0.0078602
0.00786236
0.00787243
0.00789265
0.00792554
0.00797391
0.00804089
0.00813006
0.00824561
0.00839257
0.00857698
0.0088063
0.00908984
0.0094395
0.0098711
0.0104058
0.0110726
0.0119114
0.0129775
0.0143474
0.0161218
0.0184213
0.0213803
0.0251786
0.0301708
0.0369693
0.0462897
0.0734557
0.00794053
0.00795918
0.00798109
0.00800666
0.00804029
0.00808467
0.00814268
0.0082174
0.00831228
0.00843123
0.00857882
0.00876043
0.00898258
0.00925328
0.0095826
0.00998348
0.010473
0.0110741
0.0118174
0.0127448
0.0139135
0.0154018
0.0173108
0.0197579
0.0228707
0.0268471
0.0321734
0.0396732
0.0493373
0.0795379
0.00806926
0.00810983
0.00815458
0.00820346
0.00826115
0.00833083
0.00841566
0.00851898
0.00864444
0.00879625
0.00897928
0.00919933
0.00946341
0.00978012
0.0101603
0.0106178
0.0111712
0.0118445
0.0126697
0.0136897
0.0149623
0.0165653
0.0185969
0.0211662
0.024388
0.0284756
0.0340765
0.0423453
0.0520984
0.0859706
0.00824084
0.00830071
0.00836669
0.00843827
0.00852004
0.00861547
0.00872804
0.00886131
0.00901918
0.00920607
0.00942716
0.00968859
0.0099978
0.0103639
0.0107985
0.0113163
0.0119366
0.0126847
0.0135931
0.0147048
0.0160766
0.0177836
0.0199185
0.0225774
0.0258582
0.0299894
0.0358185
0.0450171
0.0545904
0.0929939
0.00844084
0.00851751
0.00860278
0.00869601
0.00880141
0.00892252
0.00906304
0.00922674
0.00941776
0.00964076
0.00990118
0.0102054
0.0105613
0.0109783
0.0114686
0.0120477
0.0127355
0.0135576
0.0145467
0.0157448
0.0172069
0.019004
0.0212207
0.0239373
0.0272305
0.031343
0.0373599
0.0477447
0.0568822
0.100945
0.00865433
0.00874547
0.00884798
0.00896134
0.00908932
0.00923539
0.00940328
0.00959696
0.00982074
0.0100795
0.0103789
0.0107256
0.0111276
0.0115948
0.0121397
0.0127783
0.0135308
0.0144228
0.0154865
0.0167626
0.0183036
0.0201757
0.0224546
0.0252019
0.0284687
0.032509
0.0386693
0.0505811
0.0590682
0.110186
0.00886665
0.00897016
0.00908781
0.00921945
0.00936836
0.0095379
0.00973175
0.00995393
0.0102089
0.0105017
0.010838
0.0112249
0.0116704
0.0121847
0.0127806
0.0134743
0.0142858
0.0152406
0.0163701
0.0177136
0.0193208
0.0212536
0.0235787
0.0263367
0.0295487
0.0334749
0.0397237
0.0535634
0.0612634
0.121009
0.00906451
0.0091785
0.0093092
0.00945693
0.00962461
0.0098154
0.0100329
0.0102811
0.0105645
0.0108881
0.011258
0.0116811
0.0121657
0.0127221
0.0133632
0.0141051
0.0149677
0.015976
0.0171608
0.0185599
0.0202206
0.0222014
0.0245609
0.0273175
0.030457
0.0342424
0.040515
0.0566986
0.0635867
0.133493
0.00923707
0.00935968
0.00950128
0.00966269
0.0098465
0.0100557
0.0102937
0.0105644
0.0108724
0.0112227
0.0116214
0.0120754
0.0125932
0.0131852
0.0138641
0.0146459
0.0155503
0.0166019
0.0178307
0.0192732
0.0209754
0.022993
0.025379
0.0281287
0.0311881
0.0348237
0.0410536
0.0599464
0.0661226
0.147335
0.00937635
0.00950576
0.00965606
0.00982852
0.0100255
0.0102496
0.0105044
0.0107935
0.0111214
0.0114933
0.0119151
0.0123939
0.0129382
0.0135582
0.0142667
0.0150795
0.016016
0.0171003
0.0183619
0.0198366
0.0215689
0.0236139
0.0260205
0.0287624
0.031743
0.0352366
0.0413689
0.0631972
0.0688694
0.161679
0.00947754
0.00961197
0.00976875
0.00994948
0.0101562
0.0103917
0.0106589
0.0109617
0.0113045
0.0116923
0.0121312
0.0126283
0.0131918
0.0138322
0.014562
0.0153967
0.0163558
0.0174631
0.0187473
0.0202436
0.0219961
0.02406
0.0264822
0.0292178
0.0321279
0.0355006
0.0415044
0.066266
0.071694
0.175163
0.00953898
0.00967667
0.00983769
0.0100238
0.010237
0.0104798
0.0107551
0.0110668
0.0114191
0.0118173
0.0122672
0.0127759
0.0133518
0.0140049
0.0147479
0.0155964
0.0165694
0.0176906
0.0189884
0.0204976
0.0222619
0.0243371
0.0267702
0.0295016
0.0323559
0.0356387
0.0415109
0.068843
0.0742632
0.186099
0.00956174
0.009701
0.00986409
0.0100529
0.0102692
0.0105154
0.0107945
0.0111104
0.0114673
0.0118703
0.0123254
0.0128395
0.0134209
0.01408
0.0148291
0.0156838
0.0166633
0.017791
0.0190951
0.0206102
0.0223799
0.0244607
0.0269
0.0296306
0.0324546
0.0356896
0.0414616
0.0703241
0.0758844
0.19233
0.00954892
0.00968824
0.00985138
0.0100402
0.0102565
0.0105026
0.0107817
0.0110974
0.0114542
0.011857
0.0123118
0.0128256
0.0134067
0.0140654
0.0148142
0.0156688
0.0166484
0.0177762
0.0190807
0.0205963
0.0223668
0.0244487
0.0268895
0.0296215
0.0324465
0.035683
0.0414472
0.0702972
0.0758651
0.192569
0.00950046
0.00963833
0.00979955
0.00998587
0.0101991
0.0104417
0.0107168
0.0110282
0.0113802
0.0117778
0.012227
0.0127348
0.0133096
0.0139618
0.0147041
0.0155522
0.0165253
0.0176471
0.0189461
0.0204569
0.0222236
0.0243022
0.0267396
0.029475
0.0323326
0.0356195
0.0414704
0.0687715
0.0742126
0.186783
0.00941355
0.00954832
0.00970551
0.00988664
0.0100936
0.0103291
0.0105961
0.0108986
0.0112408
0.0116279
0.0120657
0.0125614
0.0131235
0.0137624
0.0144911
0.0153254
0.0162848
0.0173932
0.0186793
0.0201786
0.0219352
0.0240047
0.0264336
0.0291756
0.0320913
0.0354708
0.0414465
0.0661739
0.0716305
0.176205
0.00928772
0.00941766
0.00956863
0.00974182
0.00993933
0.0101638
0.0104187
0.0107075
0.0110349
0.0114059
0.0118264
0.0123036
0.0128461
0.0134645
0.0141718
0.0149841
0.0159211
0.0170071
0.0182715
0.0197504
0.0214885
0.023541
0.025956
0.0287061
0.0316952
0.0351989
0.0413061
0.063113
0.0688124
0.162979
0.00912522
0.00924856
0.00939112
0.00955366
0.00973849
0.00994845
0.0101869
0.0104577
0.0107654
0.0111148
0.0115122
0.0119645
0.0124805
0.0130707
0.0137484
0.0145298
0.015435
0.0164887
0.0177211
0.019169
0.0208782
0.0229046
0.0253
0.0280592
0.0311308
0.0347819
0.0410002
0.0598943
0.0660881
0.148804
0.00893134
0.00904635
0.00917834
0.00932764
0.00949682
0.00968889
0.00990733
0.010156
0.0104394
0.0107625
0.0111313
0.0115528
0.0120357
0.0125904
0.0132304
0.013972
0.0148356
0.0158465
0.0170354
0.0184406
0.0201091
0.022099
0.0244681
0.0272354
0.0303918
0.0342011
0.0404849
0.0566963
0.0635876
0.135055
0.00871445
0.00881939
0.00893876
0.00907243
0.00922335
0.00939471
0.00959007
0.00981333
0.0100688
0.0103615
0.0106972
0.0110828
0.0115268
0.0120397
0.0126347
0.0133282
0.0141409
0.0150983
0.0162322
0.0175819
0.0191969
0.0211383
0.0234725
0.0262428
0.0294775
0.0334394
0.0397283
0.0536195
0.0613104
0.122603
0.00848566
0.00857875
0.00868354
0.0087995
0.00893004
0.00907849
0.00924849
0.00944387
0.00966884
0.00992817
0.0102275
0.0105735
0.0109744
0.0114404
0.0119845
0.012623
0.0133766
0.0142712
0.015339
0.0166209
0.0181687
0.0200482
0.0223356
0.025097
0.0283939
0.0324848
0.0387155
0.0506967
0.0591706
0.111774
0.00825826
0.00833761
0.00842585
0.00852232
0.00863089
0.00875499
0.00889822
0.00906428
0.0092572
0.00948153
0.0097426
0.0100468
0.010402
0.0108181
0.0113076
0.0118864
0.0125752
0.0133995
0.0143921
0.0155949
0.0170624
0.0188653
0.02109
0.0238233
0.0271549
0.0313349
0.03745
0.047916
0.0570495
0.102509
0.00804685
0.00811027
0.00817999
0.0082555
0.00834105
0.00844004
0.0085559
0.00869213
0.00885258
0.00904152
0.00926398
0.00952596
0.00983491
0.0102002
0.0106337
0.0111511
0.0117719
0.0125216
0.0134328
0.0145478
0.0159234
0.0176349
0.0197776
0.0224566
0.0257849
0.0300007
0.0359508
0.0452385
0.0548328
0.0945349
0.0078663
0.00791129
0.00796055
0.00801395
0.00807589
0.00814954
0.00823806
0.00834476
0.00847323
0.00862754
0.00881238
0.00903334
0.00929734
0.0096132
0.00999222
0.010449
0.0110024
0.0116768
0.0125039
0.0135262
0.0148014
0.0164079
0.0184483
0.0210418
0.0243203
0.0285079
0.0342467
0.0426123
0.052427
0.087505
0.00773092
0.00775482
0.00778185
0.00781229
0.00785033
0.00789872
0.00796039
0.00803845
0.00813629
0.0082577
0.00840705
0.00858954
0.00881158
0.00908135
0.00940936
0.00980924
0.0102986
0.0109006
0.0116453
0.0125744
0.0137453
0.0152377
0.0171577
0.0196341
0.0228122
0.0269009
0.0323765
0.0399836
0.0497633
0.0810921
0.00765348
0.00765399
0.00765763
0.00766459
0.00767868
0.00770233
0.00773822
0.00778918
0.00785835
0.00794921
0.00806586
0.00821319
0.00839719
0.00862545
0.00890769
0.00925645
0.00968801
0.0102237
0.0108921
0.0117329
0.0128023
0.0141788
0.0159686
0.018304
0.0213359
0.025255
0.0304031
0.0373233
0.0468228
0.0750584
0.00764317
0.00762052
0.00760107
0.00758518
0.00757651
0.0075769
0.00758848
0.00761373
0.00765552
0.0077172
0.00780275
0.00791688
0.00806534
0.00825519
0.00849529
0.00879687
0.00917445
0.00964732
0.0102417
0.0109945
0.0119581
0.0132064
0.0148404
0.0169873
0.0197921
0.0234228
0.028125
0.0343752
0.0434329
0.0694366
0.00769065
0.00765604
0.0076237
0.00759237
0.0075641
0.00754111
0.00752636
0.00752311
0.00753486
0.00756533
0.00761854
0.00769905
0.00781223
0.00796457
0.00816391
0.00841999
0.00874536
0.00915715
0.00967937
0.0103457
0.011204
0.0123228
0.0137965
0.0157449
0.0183038
0.0216177
0.025829
0.0313449
0.0397387
0.0643622
0.0595917
0.055269
0.0503003
0.0452101
0.0401258
0.0350632
0.0301381
0.0254595
0.0211147
0.0171703
0.0136681
0.0106247
0.00803808
0.00589548
0.0041809
0.002882
0.00199464
0.00152547
0.00148961
0.00190675
0.00279516
0.00416299
0.00599931
0.00826909
0.0109115
0.0138407
0.0169518
0.0202163
0.0235438
0.0265461
0.0363113
0.0339603
0.0315369
0.0286838
0.0257942
0.0228806
0.0200151
0.0172647
0.0146794
0.012297
0.0101413
0.00822342
0.00654527
0.00510228
0.00388694
0.00289162
0.00211081
0.00154205
0.00118697
0.00105029
0.00113734
0.00145126
0.00199001
0.0027418
0.0036831
0.00477504
0.00596928
0.00723778
0.00833589
0.00944687
0.0288621
0.027056
0.0252098
0.0229294
0.0206364
0.0183576
0.0161476
0.0140489
0.0120879
0.0102821
0.00864124
0.00716932
0.00586578
0.00472684
0.00374677
0.00291919
0.00223826
0.00169954
0.00130076
0.00104215
0.000926549
0.000959173
0.0011467
0.00149527
0.00200733
0.00267671
0.00348427
0.00440447
0.00526742
0.00611879
0.0240784
0.0227282
0.0213336
0.0195158
0.0176844
0.015856
0.0140738
0.0123711
0.0107676
0.00927622
0.0079054
0.00665998
0.00554217
0.00455188
0.00368719
0.00294489
0.00232114
0.00181208
0.00141446
0.00112632
0.000947871
0.000882298
0.000935831
0.00111624
0.00142915
0.0018718
0.00242739
0.00307019
0.00363217
0.00417341
0.0202809
0.0192008
0.0180793
0.0166545
0.0152403
0.013825
0.0124308
0.011076
0.00977414
0.00853738
0.0073762
0.00629961
0.005315
0.00442778
0.00364122
0.00295647
0.00237273
0.00188775
0.00149829
0.001201
0.000993394
0.000874848
0.000847002
0.000912814
0.00107423
0.00132873
0.00166648
0.0020761
0.00244517
0.00280793
0.0172377
0.0163695
0.0154546
0.0143372
0.0132474
0.0121586
0.0110735
0.0099992
0.0089431
0.00791524
0.00692706
0.00599036
0.00511638
0.00431493
0.00359355
0.00295711
0.00240769
0.00194484
0.00156614
0.00126803
0.00104668
0.000898858
0.000822175
0.000814645
0.00087387
0.000996321
0.00117692
0.00141325
0.00164135
0.0018702
0.0148833
0.0141819
0.0134297
0.0125432
0.0116877
0.0108356
0.00997801
0.00911461
0.00824801
0.0073854
0.00653745
0.0057168
0.00493667
0.0042095
0.00354567
0.00295278
0.00243518
0.00199418
0.00162852
0.00133505
0.00110957
0.000947297
0.000843129
0.000791632
0.000787328
0.000825496
0.000903042
0.00102031
0.00114607
0.00127833
0.0130883
0.0125146
0.0118882
0.011171
0.0104823
0.00979675
0.00910217
0.00839359
0.00767011
0.00693611
0.00620056
0.00547562
0.00477502
0.00411243
0.00349991
0.00294686
0.00245934
0.00204015
0.00168913
0.00140381
0.00117992
0.00101187
0.000893001
0.000816027
0.00077388
0.00076112
0.00077463
0.000814535
0.000869253
0.000933583
0.0117267
0.0112467
0.0107128
0.010117
0.00954666
0.00897865
0.00840095
0.00780572
0.00718992
0.00655566
0.00590997
0.00526381
0.00463053
0.00402408
0.00345731
0.00294068
0.00248145
0.00208356
0.00174779
0.00147226
0.00125286
0.00108365
0.00095732
0.000865882
0.000801726
0.000758899
0.000733951
0.000725721
0.000733054
0.000752875
0.0106892
0.0102758
0.0098102
0.00930184
0.00881552
0.00833135
0.00783762
0.00732556
0.00679086
0.00623387
0.00565989
0.00507846
0.00450204
0.00394427
0.00341814
0.00293461
0.00250166
0.00212403
0.00180321
0.00153785
0.00132407
0.00115596
0.00102614
0.000926553
0.000849584
0.000789034
0.000741031
0.000703375
0.000680081
0.000672548
0.00989169
0.00952637
0.00911152
0.008666
0.00824034
0.00781651
0.00738376
0.00693308
0.00645955
0.00596234
0.00544539
0.00491693
0.00438837
0.00387262
0.0033824
0.00292868
0.00251979
0.00216096
0.00185421
0.0015986
0.00139058
0.00122452
0.00109325
0.000989
0.000904397
0.000833149
0.000771074
0.000715327
0.000672558
0.000648602
0.00927298
0.00894344
0.00856715
0.0081684
0.00778654
0.0074063
0.00701798
0.00661271
0.00618522
0.00573407
0.00526224
0.00477691
0.00428841
0.00380874
0.00334997
0.00292281
0.00253562
0.00219387
0.00189992
0.00165322
0.00145059
0.00128675
0.00115498
0.0010479
0.00095847
0.000880474
0.000809393
0.000742519
0.000687412
0.000653771
0.00879009
0.00848767
0.00814129
0.00777791
0.00742828
0.00708007
0.0067241
0.00635221
0.00595909
0.00554314
0.00510679
0.00465637
0.0042012
0.00375223
0.00332074
0.00291693
0.002549
0.00222246
0.00193989
0.00170105
0.00150314
0.0013413
0.00120929
0.00110023
0.00100738
0.000924655
0.000847775
0.000774096
0.000711329
0.000672381
0.0084126
0.00813134
0.00780881
0.00747274
0.00714737
0.00682233
0.00648959
0.00614173
0.00577383
0.00538449
0.00497586
0.00455355
0.00412588
0.00370278
0.00329463
0.00291105
0.00255992
0.00224667
0.001974
0.0017419
0.00154791
0.0013876
0.00125517
0.00114428
0.00104858
0.00096243
0.000881806
0.000804108
0.000736879
0.000695584
0.00811844
0.00785431
0.00755135
0.00723649
0.0069292
0.00662084
0.00630416
0.00597308
0.00562333
0.00525387
0.00486673
0.00446686
0.00406165
0.00366004
0.00327157
0.00290523
0.0025685
0.00226665
0.0020024
0.0017759
0.001585
0.00142559
0.00129238
0.00117953
0.00108122
0.000992448
0.00090936
0.000829494
0.000760051
0.000718383
0.00789159
0.00764156
0.00735469
0.00705632
0.00676223
0.00646544
0.00615936
0.00583949
0.00550253
0.00514774
0.00477706
0.00439487
0.0040077
0.00362366
0.0032515
0.00289959
0.00257498
0.0022827
0.00202543
0.00180342
0.00161472
0.00145558
0.00132114
0.00120611
0.00110535
0.00101444
0.000929718
0.000848909
0.000778756
0.000737941
0.00772016
0.00748159
0.00720768
0.00692193
0.00663707
0.00634769
0.00604844
0.0057356
0.00540737
0.0050632
0.00470483
0.00433622
0.00396325
0.00359329
0.00323437
0.00289428
0.00257963
0.00229518
0.0020435
0.00182487
0.00163752
0.00147804
0.00134199
0.00122465
0.00112154
0.0010288
0.000942988
0.000861997
0.000792044
0.000752614
0.00759486
0.0073654
0.00710162
0.00682517
0.00654647
0.0062615
0.00596621
0.00565747
0.00533477
0.00499783
0.00464825
0.0042897
0.00392755
0.00356855
0.0032201
0.00288944
0.00258273
0.00230444
0.00205699
0.00184067
0.00165386
0.00149347
0.00135555
0.0012359
0.00113051
0.00103617
0.000949601
0.000868848
0.000799559
0.000761508
0.00750821
0.00728581
0.00702992
0.00676011
0.00648515
0.00620241
0.00590894
0.00560219
0.00528231
0.00494969
0.00460585
0.00425423
0.0038999
0.00354908
0.00320861
0.00288517
0.0025845
0.00231077
0.00206625
0.0018512
0.00166415
0.00150236
0.00136233
0.00124034
0.00113288
0.00103715
0.000949982
0.000869688
0.000801274
0.0007643
0.00745402
0.00723712
0.00698746
0.0067225
0.00644954
0.00616737
0.00587396
0.00556756
0.00524816
0.00491728
0.00457641
0.00422896
0.00387974
0.00353457
0.00319977
0.00288152
0.0025851
0.0023144
0.00207152
0.00185673
0.00166872
0.00150507
0.00136273
0.00123844
0.00112907
0.00103195
0.000944517
0.00086484
0.000797394
0.000761096
0.00742718
0.00721491
0.00697034
0.0067091
0.0064372
0.00615439
0.0058596
0.00555192
0.005231
0.00489946
0.00455908
0.00421324
0.00386665
0.00352479
0.00319351
0.00287849
0.00258462
0.00231546
0.00207297
0.00185744
0.00166776
0.00150184
0.00135701
0.00123045
0.00111938
0.00102122
0.000933684
0.000854753
0.000788337
0.000752265
0.00742335
0.00721559
0.0069756
0.00671749
0.00644628
0.00616196
0.00586462
0.00555406
0.00522991
0.00489547
0.00455326
0.00420668
0.00386038
0.00351959
0.00318975
0.00287609
0.00258308
0.002314
0.00207066
0.00185342
0.00166139
0.00149279
0.00134535
0.00121658
0.00110408
0.00100522
0.000917859
0.000839916
0.000774638
0.000738395
0.00743852
0.00723587
0.00700056
0.00674553
0.006475
0.00618906
0.00588811
0.00557312
0.0052443
0.00490487
0.00455868
0.00420913
0.00386087
0.00351895
0.00318847
0.00287426
0.00258041
0.00230994
0.00206456
0.00184468
0.00164964
0.00147802
0.00132788
0.00119706
0.0010833
0.000984232
0.000897528
0.000820834
0.000756922
0.000720181
0.00746877
0.00727253
0.00704279
0.0067914
0.00652185
0.00623428
0.0059292
0.00560856
0.00527382
0.00492761
0.00457543
0.00422077
0.00386829
0.00352299
0.00318971
0.00287293
0.00257646
0.0023031
0.00205449
0.0018311
0.00163251
0.0014576
0.00130477
0.00117209
0.00105743
0.000958629
0.000872958
0.000798073
0.000735865
0.00069843
0.00751012
0.00732225
0.00709985
0.00685336
0.00658576
0.00629656
0.00598716
0.00566012
0.00531831
0.00496402
0.00460396
0.0042421
0.00388311
0.00353203
0.00319356
0.002872
0.00257097
0.00229314
0.00204011
0.00181244
0.00160989
0.00143163
0.00127627
0.00114206
0.00102696
0.000928722
0.000844713
0.000772225
0.000712152
0.000674079
0.0075583
0.00738147
0.00716888
0.00692955
0.00666469
0.00637467
0.00606122
0.00572766
0.00537804
0.00501481
0.0046452
0.0042741
0.00390615
0.00354656
0.00320018
0.00287131
0.00256352
0.0022795
0.00202087
0.00178828
0.00158159
0.00140018
0.00124272
0.00110749
0.000992445
0.000895294
0.000813419
0.000743989
0.000686616
0.00064821
0.00760826
0.00744629
0.00724688
0.00701692
0.00675668
0.00646718
0.0061508
0.00581142
0.00545399
0.00508158