/*--------------------------------*- C++ -*----------------------------------*\
  =========                 |
  \\      /  F ield         | OpenFOAM: The Open Source CFD Toolbox
   \\    /   O peration     | Website:  https://openfoam.org
    \\  /    A nd           | Version:  12
     \\/     M anipulation  |
\*---------------------------------------------------------------------------*/
FoamFile
{
    format      ascii;
    class       volVectorField;
    location    "160";
    object      U;
}
// * * * * * * * * * * * * * * * * * * * * * * * * * * * * * * * * * * * * * //

dimensions      [0 1 -1 0 0 0 0];

internalField   nonuniform List<vector> 
6750
(
(0.200065 -0.00312063 0)
(0.200334 -0.00958911 0)
(0.2006 -0.0155829 0)
(0.200831 -0.0211591 0)
(0.200689 -0.0264004 0)
(0.200037 -0.00347813 0)
(0.200271 -0.0101451 0)
(0.200458 -0.0160534 0)
(0.200516 -0.0213285 0)
(0.200373 -0.0260431 0)
(0.200026 -0.00363722 0)
(0.200122 -0.010357 0)
(0.200123 -0.016122 0)
(0.199979 -0.0210935 0)
(0.19971 -0.0253545 0)
(0.20001 -0.00366795 0)
(0.199953 -0.0102923 0)
(0.199761 -0.0158491 0)
(0.199436 -0.0205382 0)
(0.199036 -0.024481 0)
(0.199996 -0.00359768 0)
(0.199798 -0.00999866 0)
(0.199422 -0.0152926 0)
(0.19892 -0.0197083 0)
(0.198375 -0.0233939 0)
(0.199984 -0.00344414 0)
(0.199656 -0.00951115 0)
(0.199104 -0.0144867 0)
(0.198421 -0.0186132 0)
(0.197712 -0.0220493 0)
(0.199974 -0.00322182 0)
(0.199524 -0.00885737 0)
(0.198799 -0.0134564 0)
(0.197931 -0.0172614 0)
(0.197043 -0.0204303 0)
(0.199965 -0.00294177 0)
(0.199398 -0.00806009 0)
(0.198505 -0.0122251 0)
(0.197451 -0.0156692 0)
(0.196378 -0.0185413 0)
(0.199956 -0.00261358 0)
(0.199281 -0.00714176 0)
(0.198227 -0.0108207 0)
(0.196995 -0.0138641 0)
(0.195738 -0.0164067 0)
(0.199949 -0.00224698 0)
(0.199175 -0.00612692 0)
(0.197976 -0.00927668 0)
(0.196579 -0.0118845 0)
(0.195151 -0.0140677 0)
(0.199943 -0.00185229 0)
(0.199084 -0.00504228 0)
(0.197758 -0.00763145 0)
(0.196219 -0.00977716 0)
(0.194641 -0.0115767 0)
(0.199938 -0.00144013 0)
(0.199011 -0.00391546 0)
(0.197583 -0.00592548 0)
(0.195927 -0.00759244 0)
(0.194226 -0.00899244 0)
(0.199935 -0.00102082 0)
(0.198957 -0.00277333 0)
(0.197453 -0.00419846 0)
(0.195711 -0.00538029 0)
(0.193918 -0.00637366 0)
(0.199931 -0.000603565 0)
(0.198926 -0.00164059 0)
(0.197371 -0.0024864 0)
(0.195573 -0.00318627 0)
(0.193719 -0.0037747 0)
(0.199921 -0.000200086 0)
(0.198921 -0.000536761 0)
(0.197334 -0.000817919 0)
(0.195509 -0.00104843 0)
(0.193626 -0.00124204 0)
(0.199921 0.00020077 0)
(0.198921 0.000538668 0)
(0.197334 0.000820845 0)
(0.195509 0.00105218 0)
(0.193626 0.00124646 0)
(0.199931 0.000604248 0)
(0.198926 0.0016425 0)
(0.197371 0.00248932 0)
(0.195573 0.00319001 0)
(0.193719 0.00377912 0)
(0.199935 0.0010215 0)
(0.198957 0.00277523 0)
(0.197453 0.00420137 0)
(0.195711 0.00538402 0)
(0.193918 0.00637806 0)
(0.199938 0.00144081 0)
(0.199011 0.00391736 0)
(0.197583 0.00592838 0)
(0.195927 0.00759616 0)
(0.194226 0.00899682 0)
(0.199943 0.00185296 0)
(0.199084 0.00504416 0)
(0.197758 0.00763433 0)
(0.196219 0.00978085 0)
(0.194641 0.0115811 0)
(0.199949 0.00224764 0)
(0.199175 0.00612879 0)
(0.197976 0.00927953 0)
(0.196579 0.0118882 0)
(0.195151 0.014072 0)
(0.199956 0.00261424 0)
(0.199281 0.00714361 0)
(0.198227 0.0108235 0)
(0.196995 0.0138677 0)
(0.195738 0.016411 0)
(0.199965 0.00294242 0)
(0.199398 0.00806192 0)
(0.198505 0.0122279 0)
(0.197451 0.0156728 0)
(0.196378 0.0185455 0)
(0.199974 0.00322246 0)
(0.199524 0.00885918 0)
(0.198799 0.0134591 0)
(0.197931 0.017265 0)
(0.197043 0.0204344 0)
(0.199984 0.00344477 0)
(0.199656 0.00951294 0)
(0.199104 0.0144894 0)
(0.198421 0.0186167 0)
(0.197712 0.0220534 0)
(0.199996 0.00359831 0)
(0.199798 0.0100004 0)
(0.199422 0.0152953 0)
(0.19892 0.0197118 0)
(0.198375 0.023398 0)
(0.20001 0.00366856 0)
(0.199953 0.0102941 0)
(0.199761 0.0158518 0)
(0.199437 0.0205416 0)
(0.199037 0.0244851 0)
(0.200026 0.00363782 0)
(0.200122 0.0103587 0)
(0.200123 0.0161247 0)
(0.199979 0.0210969 0)
(0.19971 0.0253586 0)
(0.200037 0.00347869 0)
(0.200271 0.0101468 0)
(0.200458 0.016056 0)
(0.200516 0.0213319 0)
(0.200373 0.0260472 0)
(0.200065 0.00312113 0)
(0.200334 0.00959065 0)
(0.200601 0.0155853 0)
(0.200831 0.0211624 0)
(0.200689 0.0264045 0)
(0.198509 -0.0381773 0)
(0.196769 -0.0437743 0)
(0.195287 -0.0489009 0)
(0.194255 -0.0535037 2.81545e-22)
(0.193526 -0.0574709 0)
(0.193043 -0.0607413 0)
(0.192794 -0.0632487 -1.92739e-20)
(0.192766 -0.0648975 1.9444e-20)
(0.192938 -0.0655703 1.57856e-22)
(0.19324 -0.0652127 1.0108e-20)
(0.193644 -0.0636963 1.88357e-23)
(0.194071 -0.0608682 -1.30754e-23)
(0.194442 -0.0567981 -5.20481e-21)
(0.194673 -0.0515553 -5.16465e-21)
(0.19469 -0.0452833 -1.20577e-20)
(0.194438 -0.0381921 1.2062e-20)
(0.193887 -0.030541 -4.83986e-21)
(0.193037 -0.0226109 -4.4906e-21)
(0.191917 -0.014683 3.12788e-22)
(0.190576 -0.00701324 3.55522e-22)
(0.189065 0.000188048 8.62149e-21)
(0.187461 0.00680887 -1.27036e-22)
(0.185846 0.0127235 1.47504e-20)
(0.184282 0.0178747 -1.46199e-20)
(0.182817 0.0222518 0)
(0.181493 0.0258757 0)
(0.18034 0.0287875 -1.85605e-22)
(0.179382 0.0310399 0)
(0.17864 0.0326877 0)
(0.178107 0.0337567 0)
(0.19762 -0.0415395 0)
(0.196042 -0.0470464 0)
(0.194847 -0.05174 0)
(0.194004 -0.0558318 -2.661e-22)
(0.193394 -0.059308 0)
(0.193005 -0.0621282 0)
(0.192835 -0.0642212 1.91914e-20)
(0.192869 -0.0654899 -1.96528e-20)
(0.193084 -0.0658254 -1.48576e-22)
(0.193409 -0.0651957 0)
(0.193819 -0.0634355 0)
(0.194225 -0.0604627 -9.55675e-21)
(0.194562 -0.0563405 9.58685e-21)
(0.194751 -0.0511398 0)
(0.194725 -0.0449972 -3.21612e-20)
(0.194435 -0.0381064 3.21615e-20)
(0.193858 -0.0307019 0)
(0.192997 -0.023039 8.69706e-21)
(0.191878 -0.0153692 -8.74124e-21)
(0.190546 -0.00792355 0)
(0.189063 -0.000892306 0)
(0.187489 0.00560539 1.19177e-22)
(0.18589 0.0114591 -1.4168e-20)
(0.184332 0.0166108 1.42749e-20)
(0.182863 0.0210419 0)
(0.181521 0.0247639 0)
(0.180335 0.027809 1.74781e-22)
(0.179325 0.0302229 0)
(0.178517 0.0320639 0)
(0.177917 0.033409 0)
(0.196783 -0.0441293 0)
(0.195524 -0.0491256 0)
(0.194511 -0.0534007 0)
(0.193759 -0.0571586 1.95861e-20)
(0.193223 -0.0603524 -1.98034e-20)
(0.192906 -0.0629185 2.06748e-20)
(0.192802 -0.0647738 -2.08692e-20)
(0.192894 -0.0658204 3.21546e-22)
(0.193152 -0.0659579 0)
(0.193509 -0.0651612 0)
(0.193933 -0.0632438 -3.20945e-22)
(0.194335 -0.0601763 0)
(0.19465 -0.0560099 0)
(0.1948 -0.0508181 -7.59695e-23)
(0.194722 -0.0447354 -5.29413e-20)
(0.194372 -0.0379482 5.29417e-20)
(0.19373 -0.0306797 7.02875e-23)
(0.192804 -0.0231699 0)
(0.191625 -0.015655 0)
(0.19024 -0.00834964 2.54566e-22)
(0.188708 -0.0014309 0)
(0.187095 0.00496546 0)
(0.185464 0.0107536 -2.36082e-22)
(0.183875 0.0158766 -1.37565e-20)
(0.182374 0.0203129 1.36284e-20)
(0.180999 0.0240697 -1.2638e-20)
(0.179775 0.0271735 1.24805e-20)
(0.178718 0.0296625 0)
(0.17786 0.0315946 0)
(0.177278 0.0331149 0)
(0.196044 -0.0464565 0)
(0.195009 -0.0510332 -4.2405e-20)
(0.194099 -0.0549736 2.13817e-20)
(0.193417 -0.058439 4.44383e-20)
(0.192951 -0.061364 -4.49759e-20)
(0.192702 -0.063677 2.23714e-20)
(0.19266 -0.0652925 0)
(0.19281 -0.0661148 7.02319e-22)
(0.193104 -0.0660614 0)
(0.1935 -0.0650874 0)
(0.19394 -0.0630175 1.13863e-20)
(0.194342 -0.059858 -1.07606e-20)
(0.194637 -0.0556485 0)
(0.194748 -0.050466 7.9758e-23)
(0.194611 -0.0444431 -7.33103e-20)
(0.194185 -0.0377594 7.33107e-20)
(0.193455 -0.030627 -7.37926e-23)
(0.192433 -0.0232723 0)
(0.191155 -0.015917 -8.50078e-21)
(0.189674 -0.00876157 7.94131e-21)
(0.188051 -0.00197264 2.42978e-22)
(0.186355 0.00432283 0)
(0.18465 0.0100396 -4.44896e-22)
(0.182994 0.0151252 0)
(0.181434 0.019558 1.29983e-20)
(0.180006 0.0233425 -2.47686e-20)
(0.178732 0.0265007 2.341e-20)
(0.177624 0.0290637 1.05055e-20)
(0.176715 0.0310851 -2.16916e-20)
(0.176169 0.0327811 0)
(0.195285 -0.0486732 0)
(0.194385 -0.0528854 4.75915e-20)
(0.193557 -0.0565135 -4.67668e-20)
(0.192947 -0.0596906 0)
(0.192551 -0.0623465 0)
(0.192366 -0.0644059 7.6145e-22)
(0.192382 -0.0657819 0)
(0.192585 -0.06638 -7.35923e-22)
(0.192917 -0.0661393 1.16188e-20)
(0.193348 -0.0649796 -1.17784e-20)
(0.1938 -0.0627613 -1.16364e-20)
(0.1942 -0.0595052 1.13349e-20)
(0.194472 -0.0552474 3.38303e-22)
(0.194536 -0.0500675 -1.63307e-22)
(0.194332 -0.0440969 -9.32884e-20)
(0.19382 -0.0375092 9.32888e-20)
(0.192988 -0.030507 1.44516e-22)
(0.191853 -0.0233043 -2.76569e-22)
(0.190455 -0.0161093 8.49694e-21)
(0.188852 -0.00910921 -8.19012e-21)
(0.187113 -0.0024598 -8.04958e-21)
(0.185306 0.00372074 7.73935e-21)
(0.183499 0.00935108 4.66249e-22)
(0.181751 0.0143823 0)
(0.180109 0.0187938 -4.021e-22)
(0.178608 0.0225888 0)
(0.177271 0.0257859 0)
(0.176103 0.0284102 -2.22688e-20)
(0.175135 0.0305097 2.12972e-20)
(0.174619 0.0323725 0)
(0.194431 -0.0507805 4.89809e-20)
(0.193616 -0.0546444 -7.69986e-20)
(0.192863 -0.0579729 2.53694e-20)
(0.192323 -0.0608728 0)
(0.191993 -0.0632697 2.56544e-20)
(0.191868 -0.0650841 -2.5123e-20)
(0.191939 -0.0662282 2.47113e-20)
(0.19219 -0.0666103 -2.56044e-20)
(0.192559 -0.066185 0)
(0.193017 -0.0648378 -7.74021e-22)
(0.193478 -0.0624748 1.18566e-20)
(0.193869 -0.0591184 -6.16926e-21)
(0.19411 -0.0548053 -9.29908e-22)
(0.194122 -0.0496181 -5.39075e-21)
(0.193843 -0.0436875 -1.12903e-19)
(0.193237 -0.0371826 1.129e-19)
(0.192295 -0.030298 -4.82035e-21)
(0.191038 -0.0232371 7.71011e-22)
(0.18951 -0.0161962 -4.06199e-21)
(0.187775 -0.00935046 8.45647e-21)
(0.185903 -0.00284501 4.79993e-22)
(0.18397 0.00321013 0)
(0.182044 0.00873945 -1.41283e-20)
(0.180186 0.0136981 1.44079e-20)
(0.178445 0.0180677 -1.32702e-20)
(0.176855 0.021851 1.27429e-20)
(0.17544 0.0250648 7.264e-22)
(0.174202 0.0277295 1.12043e-20)
(0.173167 0.0298867 -3.27139e-20)
(0.172661 0.0318916 2.30929e-20)
(0.193435 -0.0527621 -2.56502e-20)
(0.192674 -0.0562917 2.8973e-20)
(0.19199 -0.0593386 2.90161e-20)
(0.191516 -0.0619768 -2.94223e-20)
(0.191247 -0.0641266 2.75025e-20)
(0.191178 -0.0657054 -2.95552e-20)
(0.191301 -0.0666258 -8.84067e-22)
(0.191597 -0.0668008 0)
(0.191998 -0.0661905 1.30689e-20)
(0.192476 -0.0646569 3.7234e-22)
(0.192939 -0.0621511 3.21672e-22)
(0.193315 -0.0586908 -1.28939e-20)
(0.193518 -0.0543156 -5.38878e-21)
(0.19347 -0.0491112 8.52533e-21)
(0.193111 -0.0432082 -1.34629e-19)
(0.192406 -0.0367725 1.29386e-19)
(0.19135 -0.0299921 7.2062e-21)
(0.189968 -0.0230616 -5.28176e-21)
(0.188307 -0.0161666 -8.49412e-21)
(0.186434 -0.0094717 -1.20603e-22)
(0.184426 -0.00311195 -1.62613e-22)
(0.182359 0.00281073 7.61277e-21)
(0.180306 0.00822715 0)
(0.178328 0.0130971 3.84606e-22)
(0.176475 0.0174049 -1.19171e-20)
(0.174785 0.0211546 1.25929e-20)
(0.173279 0.0243617 -1.16757e-20)
(0.171959 0.0270437 1.07842e-20)
(0.170847 0.0292366 1.0674e-20)
(0.17033 0.0313521 -1.20952e-20)
(0.192261 -0.0546136 0)
(0.191532 -0.0578274 2.72304e-20)
(0.190912 -0.0606125 -3.31636e-20)
(0.190498 -0.0630038 3.12414e-20)
(0.190286 -0.0649172 -2.98324e-20)
(0.190271 -0.0662684 2.73862e-20)
(0.190443 -0.0669715 -2.7733e-20)
(0.190773 -0.066948 -1.80906e-21)
(0.191205 -0.0661455 -8.85502e-22)
(0.191695 -0.064429 -8.63644e-22)
(0.192153 -0.0617812 -8.32397e-22)
(0.192505 -0.058213 4.01295e-22)
(0.192663 -0.053769 -6.35335e-21)
(0.192549 -0.0485384 3.15338e-21)
(0.192106 -0.0426522 -1.47567e-19)
(0.1913 -0.0362737 1.52939e-19)
(0.19013 -0.0295857 2.24267e-21)
(0.188622 -0.0227748 -4.17959e-21)
(0.18683 -0.0160177 2.65356e-22)
(0.184822 -0.00946916 1.02528e-21)
(0.182678 -0.00325513 4.70421e-22)
(0.180477 0.00253047 4.44918e-22)
(0.178294 0.00782482 8.44503e-22)
(0.176192 0.0125926 -1.39544e-20)
(0.174222 0.0168216 1.37081e-20)
(0.172424 0.0205173 -1.19987e-20)
(0.170818 0.0236956 1.1081e-20)
(0.169408 0.0263722 -9.68637e-21)
(0.168211 0.028579 1.15941e-20)
(0.16766 0.0307719 0)
(0.190871 -0.0563364 0)
(0.190163 -0.0592542 1.97737e-21)
(0.1896 -0.0617954 -2.74092e-20)
(0.189243 -0.0639527 4.15675e-22)
(0.189085 -0.0656386 3.19004e-20)
(0.18912 -0.0667687 1.94939e-21)
(0.189338 -0.0672578 1.94989e-21)
(0.189692 -0.0670427 -1.30432e-20)
(0.190151 -0.0660417 1.61174e-20)
(0.190644 -0.0641479 -4.9546e-24)
(0.191092 -0.0613551 -6.8268e-21)
(0.191412 -0.0576748 6.86781e-21)
(0.191518 -0.0531561 -2.69379e-21)
(0.191334 -0.0478915 3.10306e-21)
(0.190803 -0.0420128 -1.68361e-19)
(0.189896 -0.0356815 1.6836e-19)
(0.188613 -0.0290756 2.40755e-21)
(0.186984 -0.022375 -2.69669e-21)
(0.185064 -0.0157482 3.94236e-21)
(0.182926 -0.0093413 -5.21277e-21)
(0.180652 -0.00327171 -2.9224e-23)
(0.178321 0.00237417 7.0345e-21)
(0.176011 0.00753981 -7.87678e-21)
(0.173787 0.0121949 -7.83016e-22)
(0.1717 0.0163305 -8.02826e-22)
(0.16979 0.0199548 1.17176e-20)
(0.16808 0.0230843 -3.29171e-22)
(0.166573 0.0257342 -1.23981e-20)
(0.165284 0.027934 0)
(0.164679 0.0301712 0)
(0.189234 -0.0579326 0)
(0.188539 -0.0605733 -3.53029e-20)
(0.188029 -0.0628859 4.10121e-22)
(0.187725 -0.0648198 5.2242e-22)
(0.187617 -0.0662856 6.52803e-20)
(0.187698 -0.0672001 -3.38609e-20)
(0.187956 -0.0674801 -2.03776e-21)
(0.188335 -0.0670728 0)
(0.188811 -0.0658706 1.44496e-20)
(0.1893 -0.0638016 -1.46536e-20)
(0.189729 -0.0608617 7.1372e-21)
(0.190011 -0.0570656 -3.99231e-22)
(0.19006 -0.0524671 -6.8158e-21)
(0.189801 -0.0471623 1.9266e-22)
(0.189181 -0.0412839 -1.85655e-19)
(0.188172 -0.0349917 1.85738e-19)
(0.186779 -0.0284596 -1.54156e-22)
(0.185034 -0.0218615 -4.50688e-21)
(0.182995 -0.0153584 2.93519e-22)
(0.180735 -0.00908834 5.17208e-21)
(0.178338 -0.00316111 -7.80979e-21)
(0.175886 0.00234402 7.22588e-21)
(0.173456 0.0073765 0)
(0.171114 0.0119108 8.18385e-22)
(0.168913 0.0159419 -1.18412e-20)
(0.166893 0.0194801 2.37017e-20)
(0.165078 0.0225434 -3.05851e-22)
(0.16347 0.0251473 5.56939e-22)
(0.162087 0.0273209 -1.03733e-20)
(0.161411 0.0295711 0)
(0.187316 -0.0594043 -4.54733e-21)
(0.186629 -0.0617844 0)
(0.18617 -0.063881 -2.22005e-21)
(0.185918 -0.0656002 3.33732e-20)
(0.185857 -0.0668518 -3.62762e-20)
(0.18598 -0.0675546 3.50738e-20)
(0.18627 -0.0676306 -3.53729e-20)
(0.186673 -0.0670252 -1.67054e-20)
(0.187157 -0.0656214 3.53272e-20)
(0.187638 -0.0633782 2.10867e-22)
(0.188041 -0.0602894 -1.48038e-20)
(0.188278 -0.0563744 7.04979e-21)
(0.188264 -0.0516926 -3.77556e-21)
(0.187928 -0.046343 -5.06699e-21)
(0.187218 -0.0404596 -2.00737e-19)
(0.18611 -0.0342007 2.03511e-19)
(0.184611 -0.0277362 -3.59975e-21)
(0.182757 -0.0212345 -2.06472e-21)
(0.180606 -0.0148495 4.47387e-21)
(0.178235 -0.00871219 -8.67309e-21)
(0.175726 -0.00292493 3.11486e-23)
(0.173162 0.00243951 1.28988e-20)
(0.170621 0.00733622 -6.60654e-21)
(0.16817 0.0117443 -1.19124e-20)
(0.165861 0.0156621 1.17474e-20)
(0.163736 0.0191028 -1.09228e-20)
(0.161817 0.0220855 1.13113e-20)
(0.16011 0.0246269 -5.99744e-22)
(0.158631 0.0267571 0)
(0.157872 0.0289922 1.43115e-21)
(0.185084 -0.0607525 4.72925e-21)
(0.184406 -0.0628862 -4.00972e-20)
(0.183997 -0.0647762 3.84349e-20)
(0.183793 -0.0662873 2.36763e-21)
(0.183777 -0.0673286 2.35861e-21)
(0.183943 -0.0678212 0)
(0.184253 -0.0676978 -2.30838e-21)
(0.184679 -0.0668862 -1.99062e-20)
(0.185164 -0.0652833 3.39128e-20)
(0.185631 -0.0628653 -1.83186e-20)
(0.186001 -0.0596258 -1.003e-21)
(0.186189 -0.0555901 7.31769e-21)
(0.186109 -0.0508226 -7.35701e-21)
(0.185693 -0.0454258 -2.04271e-22)
(0.184893 -0.0395343 -2.17845e-19)
(0.18369 -0.033305 2.17757e-19)
(0.182091 -0.0269042 1.56382e-22)
(0.180135 -0.0204947 -4.4706e-21)
(0.177883 -0.014224 4.44676e-21)
(0.17541 -0.00821597 5.02576e-22)
(0.172801 -0.0025664 -6.45419e-21)
(0.170138 0.00265805 1.36984e-20)
(0.167497 0.0074177 -5.6128e-21)
(0.164946 0.0116959 6.85204e-22)
(0.162539 0.0154944 0)
(0.160315 0.0188287 -6.83024e-22)
(0.158299 0.0217196 -6.5285e-22)
(0.156495 0.024185 9.65651e-21)
(0.154923 0.0262571 -8.84709e-21)
(0.154073 0.0284528 -1.48839e-21)
(0.182506 -0.0619764 0)
(0.181838 -0.0638748 -5.61837e-23)
(0.181478 -0.0655648 4.02199e-20)
(0.181322 -0.066872 -4.09993e-20)
(0.18135 -0.0677057 -3.97886e-20)
(0.181552 -0.0679892 6.21279e-20)
(0.181885 -0.0676662 -1.73264e-20)
(0.182327 -0.0666427 -2.2365e-23)
(0.182807 -0.0648431 -2.30912e-21)
(0.183254 -0.0622491 0)
(0.183588 -0.0588578 -8.09401e-21)
(0.18372 -0.0547008 1.57405e-20)
(0.183571 -0.0498472 -7.62874e-21)
(0.183075 -0.0444027 2.13748e-22)
(0.182188 -0.0385024 -2.32472e-19)
(0.180892 -0.0323017 2.3256e-19)
(0.179199 -0.0259629 -1.63637e-22)
(0.177151 -0.0196435 -4.42526e-21)
(0.174807 -0.0134847 8.40549e-21)
(0.172246 -0.00760371 -3.97536e-21)
(0.169548 -0.00209001 0)
(0.166798 0.00299538 7.49784e-22)
(0.164071 0.00761759 -7.6528e-23)
(0.161433 0.0117638 -6.01415e-21)
(0.158937 0.015439 1.46361e-20)
(0.156623 0.0186608 -9.84832e-21)
(0.154517 0.0214513 -9.08543e-21)
(0.152622 0.0238302 9.49515e-21)
(0.150961 0.0258322 -6.5147e-23)
(0.150017 0.0279684 0)
(0.179548 -0.0630729 0)
(0.178892 -0.0647438 -3.97626e-20)
(0.178582 -0.0662375 4.33095e-20)
(0.178475 -0.0673432 3.97256e-20)
(0.178546 -0.0679703 -4.32539e-20)
(0.178781 -0.0680468 -2.31661e-20)
(0.179137 -0.0675184 8.2589e-22)
(0.179588 -0.06628 2.29898e-20)
(0.18006 -0.0642849 4.83252e-21)
(0.180482 -0.0615145 0)
(0.180773 -0.0579719 0)
(0.180848 -0.0536945 -6.83373e-21)
(0.180628 -0.0487564 8.36923e-21)
(0.180052 -0.0432658 0)
(0.179079 -0.0373585 -2.45893e-19)
(0.177695 -0.0311877 2.4589e-19)
(0.175917 -0.0249117 0)
(0.173785 -0.0186825 4.07767e-21)
(0.171362 -0.012635 -4.82356e-21)
(0.168723 -0.00688012 0)
(0.165952 -0.00150124 0)
(0.163128 0.00344588 -1.48274e-21)
(0.160328 0.00793076 4.52913e-21)
(0.157615 0.0119441 -3.0268e-22)
(0.155042 0.0154936 -4.16549e-21)
(0.15265 0.0185987 -8.63699e-21)
(0.150461 0.0212831 8.95262e-21)
(0.148483 0.0235676 8.08052e-21)
(0.146739 0.0254901 -8.44903e-21)
(0.145701 0.0275509 0)
(0.176171 -0.0640364 0)
(0.175536 -0.0654817 0)
(0.175277 -0.066782 0)
(0.17522 -0.0676872 -4.20159e-20)
(0.175336 -0.0681067 2.05553e-20)
(0.175596 -0.0679785 2.51212e-20)
(0.175978 -0.0672343 2.72362e-21)
(0.176433 -0.0657824 2.05273e-20)
(0.176893 -0.063592 -1.14587e-21)
(0.177287 -0.0606458 -1.99002e-20)
(0.177531 -0.0569534 -1.13418e-21)
(0.177545 -0.0525584 -2.11668e-21)
(0.177254 -0.0475395 -4.70033e-21)
(0.176598 -0.0420072 3.52061e-21)
(0.175543 -0.0360971 -2.57792e-19)
(0.174079 -0.0299601 2.57799e-19)
(0.172222 -0.0237502 2.56668e-21)
(0.170017 -0.0176136 -1.83732e-21)
(0.167526 -0.0116788 9.92099e-22)
(0.164824 -0.0060506 4.16062e-22)
(0.161992 -0.00080649 -5.87724e-21)
(0.159109 0.0040027 6.39914e-22)
(0.156249 0.00835049 5.18133e-21)
(0.153475 0.0122307 -5.12939e-22)
(0.150838 0.0156533 3.56692e-21)
(0.148379 0.0186396 4.04574e-21)
(0.146119 0.0212139 -7.9175e-21)
(0.144066 0.0233987 0)
(0.142247 0.0252348 0)
(0.141118 0.0272085 0)
(0.172337 -0.0648544 -4.76994e-20)
(0.17173 -0.0660758 5.02635e-20)
(0.171526 -0.0671836 0)
(0.171522 -0.0678875 -2.36432e-20)
(0.171681 -0.0680977 2.68931e-20)
(0.171971 -0.0677617 2.27552e-20)
(0.172374 -0.0667947 -2.90119e-20)
(0.17283 -0.0651314 0)
(0.173275 -0.0627458 -2.64362e-21)
(0.173636 -0.0596253 0)
(0.173832 -0.0557865 3.3953e-24)
(0.173783 -0.051279 9.08883e-24)
(0.17342 -0.0461855 1.00332e-21)
(0.172688 -0.0406184 4.54315e-22)
(0.171555 -0.0347127 -2.6831e-19)
(0.170016 -0.0286162 2.68294e-19)
(0.16809 -0.0224783 -3.15847e-22)
(0.165823 -0.016439 -5.49753e-22)
(0.163276 -0.0106205 -4.23058e-23)
(0.160524 -0.00512122 -4.51089e-23)
(0.157646 -1.30868e-05 0)
(0.154719 0.00465775 6.67029e-22)
(0.151814 0.00886848 0)
(0.148993 0.0126157 -2.76452e-21)
(0.146306 0.0159112 3.76282e-21)
(0.143791 0.0187775 2.69969e-21)
(0.14147 0.0212397 -3.0853e-21)
(0.139352 0.0233216 0)
(0.137467 0.0250667 6.89885e-21)
(0.136253 0.0269449 -7.27395e-21)
(0.168003 -0.0655108 0)
(0.167433 -0.0665093 7.017e-23)
(0.167289 -0.0674236 5.33311e-20)
(0.167342 -0.0679232 -5.10024e-20)
(0.167543 -0.0679228 3.12386e-21)
(0.167868 -0.0673706 -6.12088e-21)
(0.168288 -0.0661776 2.98021e-21)
(0.168744 -0.0643044 0)
(0.169172 -0.0617249 0)
(0.169497 -0.0584337 0)
(0.169641 -0.0544543 1.22639e-21)
(0.169529 -0.0498418 -7.47481e-21)
(0.169095 -0.0446827 1.20552e-20)
(0.168288 -0.0390907 -5.89904e-21)
(0.167083 -0.0331995 -2.7488e-19)
(0.165477 -0.0271533 2.77953e-19)
(0.163492 -0.0210961 -3.49174e-21)
(0.161174 -0.0151616 6.52514e-21)
(0.158585 -0.00946515 -4.39226e-21)
(0.155797 -0.00409895 -4.0424e-22)
(0.152888 0.000870519 -2.92761e-22)
(0.149932 0.00540157 0)
(0.146997 0.00947472 0)
(0.144144 0.0130889 -4.47978e-22)
(0.14142 0.0162575 6.86917e-22)
(0.138862 0.0190039 -2.517e-22)
(0.136493 0.0213534 -4.39498e-21)
(0.134321 0.0233308 4.08976e-21)
(0.132378 0.0249823 1.02685e-22)
(0.131086 0.0267599 0)
(0.163123 -0.0659829 -5.26009e-20)
(0.162598 -0.0667624 4.87682e-20)
(0.162521 -0.0674782 2.3067e-20)
(0.162635 -0.067768 -2.68379e-20)
(0.162882 -0.0675557 -2.87788e-20)
(0.163243 -0.0667752 2.95077e-20)
(0.163679 -0.0653589 2.44704e-20)
(0.164133 -0.0632763 -2.18846e-20)
(0.164541 -0.0605059 1.25991e-20)
(0.164828 -0.0570495 -1.13142e-20)
(0.16492 -0.0529377 1.09447e-20)
(0.164744 -0.0482308 -5.36008e-21)
(0.16424 -0.0430185 -3.93037e-21)
(0.163363 -0.0374149 2.31445e-22)
(0.162092 -0.0315517 -2.82577e-19)
(0.160427 -0.0255688 2.82555e-19)
(0.158393 -0.0196041 -1.45754e-22)
(0.156037 -0.0137846 -2.10107e-21)
(0.15342 -0.00821861 -1.21415e-21)
(0.150612 -0.0029919 3.0289e-21)
(0.147688 0.00183445 -1.70433e-21)
(0.144718 0.00622297 1.78878e-21)
(0.141769 0.0101572 -2.89681e-21)
(0.138898 0.0136381 2.55746e-21)
(0.136152 0.0166801 1.47902e-21)
(0.133565 0.019307 -1.47748e-21)
(0.131159 0.0215443 -1.31659e-21)
(0.128944 0.0234172 1.49388e-21)
(0.126953 0.024974 4.5552e-21)
(0.125591 0.0266483 -4.35851e-21)
(0.157644 -0.0662436 -3.45722e-21)
(0.157171 -0.0668077 -5.47788e-20)
(0.15717 -0.0673168 6.02583e-20)
(0.15735 -0.0673918 0)
(0.157648 -0.0669597 -3.46461e-21)
(0.158046 -0.0659451 0)
(0.158499 -0.0643071 -3.31432e-21)
(0.15895 -0.0620173 2.45146e-20)
(0.159336 -0.0590611 -2.64197e-20)
(0.159583 -0.0554482 1.41465e-21)
(0.15962 -0.0512155 -2.61825e-21)
(0.159381 -0.0464284 -1.18849e-21)
(0.15881 -0.0411789 -5.4149e-22)
(0.157867 -0.0355809 -2.40234e-22)
(0.156537 -0.0297631 -2.85599e-19)
(0.154823 -0.0238602 2.85589e-19)
(0.152753 -0.0180035 1.51288e-22)
(0.150373 -0.0123124 2.50197e-22)
(0.147742 -0.00688816 -3.48349e-22)
(0.14493 -0.00180981 0)
(0.142007 0.00286688 -1.89074e-22)
(0.139041 0.00710849 -2.08605e-21)
(0.136094 0.0109013 2.3817e-21)
(0.133221 0.0142479 8.8192e-23)
(0.130467 0.0171634 0)
(0.127865 0.0196716 -3.44794e-24)
(0.125435 0.0217977 0)
(0.123188 0.0235669 7.72627e-22)
(0.12116 0.0250294 -7.04954e-22)
(0.119736 0.0266001 1.74121e-22)
(0.1515 -0.0662598 -5.44398e-20)
(0.151095 -0.066605 5.7193e-20)
(0.151178 -0.0668992 9.66439e-23)
(0.151427 -0.0667559 3.21944e-20)
(0.151785 -0.0660905 -5.41132e-20)
(0.15222 -0.0648429 3.25804e-20)
(0.152689 -0.062985 3.41168e-21)
(0.153137 -0.0604924 3.81677e-23)
(0.153498 -0.0573587 0)
(0.153703 -0.0536012 -1.46091e-21)
(0.153686 -0.0492633 -7.53098e-21)
(0.153384 -0.0444145 1.15748e-20)
(0.152749 -0.0391485 5.38702e-22)
(0.151747 -0.0335778 -1.52943e-21)
(0.150365 -0.0278274 -2.83486e-19)
(0.148613 -0.0220256 2.86494e-19)
(0.14652 -0.0162963 -1.36049e-21)
(0.14413 -0.0107509 -2.014e-22)
(0.141504 -0.00548297 2.64498e-21)
(0.138704 -0.000564798 -2.25849e-21)
(0.1358 0.00395321 1.95257e-22)
(0.132855 0.0080415 0)
(0.129928 0.0116888 1.66801e-22)
(0.12707 0.014899 -9.07819e-23)
(0.124323 0.0176875 -3.50195e-22)
(0.12172 0.0200777 1.21662e-21)
(0.11928 0.0220938 -5.36365e-22)
(0.117012 0.0237612 1.57731e-22)
(0.114957 0.0251306 2.3182e-22)
(0.11348 0.0265988 -4.1292e-22)
(0.144618 -0.0659836 0)
(0.144295 -0.0661042 0)
(0.14447 -0.0661751 -3.38431e-20)
(0.144799 -0.0658056 2.73507e-20)
(0.14522 -0.0649 0)
(0.145695 -0.0634218 -3.66477e-21)
(0.146181 -0.0613472 -3.61356e-21)
(0.146623 -0.0586593 -3.40717e-21)
(0.146957 -0.0553603 0)
(0.147119 -0.0514749 0)
(0.147047 -0.0470525 -1.3859e-21)
(0.146684 -0.0421661 5.28828e-21)
(0.145988 -0.0369097 -5.81224e-21)
(0.144932 -0.0313938 -2.41289e-22)
(0.14351 -0.0257379 -2.81082e-19)
(0.141732 -0.0200636 2.81147e-19)
(0.13963 -0.014486 1.35035e-22)
(0.137248 -0.00910803 -9.31087e-22)
(0.134643 -0.00401501 1.30021e-21)
(0.131876 0.000727615 0)
(0.12901 0.00507485 0)
(0.126105 0.00900087 0)
(0.123216 0.0124966 0)
(0.120391 0.0155668 -2.54059e-22)
(0.117669 0.0182267 -1.2906e-22)
(0.11508 0.020499 0)
(0.112643 0.0224065 -2.53308e-21)
(0.110368 0.0239739 2.05875e-21)
(0.108296 0.0252522 0)
(0.106776 0.0266203 0)
(0.136905 -0.0653507 -3.98675e-21)
(0.136684 -0.0652389 0)
(0.136961 -0.0650822 0)
(0.137381 -0.0644722 0)
(0.137868 -0.063327 0)
(0.138383 -0.0616211 0)
(0.138885 -0.0593364 3.6906e-21)
(0.139319 -0.0564655 1.79009e-21)
(0.139624 -0.0530188 -1.27744e-20)
(0.139741 -0.0490284 2.80671e-21)
(0.139612 -0.0445489 2.39934e-20)
(0.13919 -0.0396557 -1.6114e-20)
(0.138439 -0.0344423 7.02091e-22)
(0.137338 -0.0290154 4.09352e-21)
(0.135885 -0.0234883 -2.72066e-19)
(0.134096 -0.017974 2.72023e-19)
(0.132002 -0.0125785 1.56661e-21)
(0.129646 -0.00739506 -5.56644e-22)
(0.127083 -0.00250056 -2.17307e-21)
(0.124369 0.00204677 1.43616e-21)
(0.121563 0.00620732 -6.04339e-22)
(0.11872 0.00995885 3.13686e-22)
(0.115891 0.0132942 1.90472e-22)
(0.113118 0.0162186 2.59473e-22)
(0.110439 0.0187469 0)
(0.107882 0.0209002 0)
(0.105463 0.0226998 0)
(0.103194 0.0241692 0)
(0.101116 0.025359 0)
(0.0995638 0.0266298 -3.54637e-22)
(0.128251 -0.0642743 8.21238e-21)
(0.12815 -0.0639239 -3.27779e-20)
(0.128545 -0.0635271 3.40561e-20)
(0.129061 -0.0626707 0)
(0.129617 -0.0612893 -3.20279e-20)
(0.130173 -0.0593617 3.70146e-20)
(0.130689 -0.0568794 -3.16976e-20)
(0.131111 -0.0538442 2.6818e-20)
(0.131384 -0.0502751 0)
(0.131452 -0.0462111 1.04011e-20)
(0.131267 -0.0417107 -2.88172e-21)
(0.130788 -0.0368508 -1.5603e-20)
(0.129987 -0.0317229 5.31097e-21)
(0.12885 -0.0264283 1.64672e-21)
(0.127381 -0.0210726 -2.58844e-19)
(0.125597 -0.0157591 2.56108e-19)
(0.12353 -0.0105834 9.52539e-22)
(0.121223 -0.0056286 5.63063e-22)
(0.118725 -0.000962429 -1.0959e-21)
(0.116089 0.00336425 9.66907e-22)
(0.113368 0.00731726 -5.15959e-22)
(0.110611 0.0108778 -2.49872e-22)
(0.107864 0.0140403 -4.9003e-21)
(0.105166 0.0168103 3.92505e-21)
(0.102551 0.0192014 -4.66542e-21)
(0.100045 0.0212331 5.29855e-21)
(0.0976613 0.0229245 0)
(0.0954133 0.0242973 -5.6045e-21)
(0.0933432 0.0254007 5.42617e-21)
(0.0917689 0.0265775 9.56238e-22)
(0.118515 -0.0626311 2.61876e-20)
(0.118556 -0.0620347 -3.40917e-20)
(0.11908 -0.0613863 -3.00663e-20)
(0.119697 -0.0602867 3.57296e-20)
(0.120322 -0.058675 3.75591e-20)
(0.120917 -0.0565387 -7.46056e-20)
(0.121441 -0.0538794 5.23044e-20)
(0.121846 -0.0507086 -1.38503e-20)
(0.122081 -0.0470535 0)
(0.122098 -0.0429587 -1.21307e-20)
(0.121856 -0.038486 1.09105e-20)
(0.121323 -0.0337118 -6.25733e-22)
(0.12048 -0.0287239 -1.94612e-21)
(0.11932 -0.0236167 2.74e-21)
(0.11785 -0.0184863 -2.3592e-19)
(0.116091 -0.0134249 2.34722e-19)
(0.114076 -0.00851667 8.63819e-22)
(0.111843 -0.00383358 -4.58864e-22)
(0.109438 0.000566249 -3.10255e-23)
(0.106909 0.00463958 -1.68691e-21)
(0.104301 0.00835766 1.70257e-21)
(0.101659 0.011705 6.42206e-22)
(0.0990224 0.0146773 3.593e-21)
(0.0964261 0.0172797 -9.53596e-21)
(0.0938996 0.0195247 1.27942e-20)
(0.0914663 0.0214293 -6.30526e-21)
(0.0891395 0.02301 -8.03515e-21)
(0.0869309 0.0242862 7.77799e-21)
(0.0848838 0.025305 6.50014e-21)
(0.0832997 0.0263902 -8.10676e-21)
(0.107513 -0.0602399 4.09208e-20)
(0.107718 -0.0593872 4.809e-21)
(0.108377 -0.0584908 -5.72802e-21)
(0.109094 -0.0571547 -3.71863e-20)
(0.109786 -0.0553274 -4.35154e-21)
(0.110412 -0.0530068 6.40033e-21)
(0.110936 -0.0502049 5.73791e-23)
(0.111315 -0.0469423 0)
(0.111504 -0.0432536 0)
(0.111466 -0.0391881 -1.21731e-20)
(0.111167 -0.0348087 1.38568e-20)
(0.110586 -0.0301898 6.30195e-22)
(0.109711 -0.0254132 0)
(0.108543 -0.0205646 5.20049e-22)
(0.107094 -0.0157287 -2.057e-19)
(0.105386 -0.010985 2.04631e-19)
(0.103451 -0.00640498 3.43848e-22)
(0.101324 -0.00204872 0)
(0.0990466 0.00203575 3.12465e-23)
(0.0966584 0.00581305 -2.35769e-21)
(0.0941996 0.00925983 2.20026e-21)
(0.0917071 0.0123636 -3.90926e-22)
(0.0892148 0.0151211 0)
(0.0867523 0.0175369 1.68719e-22)
(0.0843451 0.0196216 1.79245e-21)
(0.0820136 0.0213892 -1.12149e-21)
(0.0797691 0.0228532 1.05301e-20)
(0.0776231 0.0240303 -1.3609e-23)
(0.075619 0.0249641 4.36077e-22)
(0.074041 0.0259586 -8.17047e-21)
(0.0949935 -0.0568192 -3.82426e-20)
(0.0953775 -0.0557192 3.27242e-20)
(0.0961693 -0.0545841 0)
(0.0969802 -0.0530311 -3.407e-20)
(0.0977254 -0.0510199 4.00777e-20)
(0.0983684 -0.0485592 -1.90838e-20)
(0.0988781 -0.0456709 3.13735e-20)
(0.0992182 -0.0423842 -1.44657e-20)
(0.0993537 -0.0387393 0)
(0.0992555 -0.0347883 0)
(0.0989021 -0.0305934 5.92881e-21)
(0.0982812 -0.0262242 -5.90093e-21)
(0.0973903 -0.0217543 0)
(0.0962366 -0.0172581 1.96089e-22)
(0.0948363 -0.012807 -1.64633e-19)
(0.093213 -0.0084664 1.64598e-19)
(0.0913954 -0.00429359 -3.65698e-23)
(0.0894159 -0.000336123 0)
(0.0873081 0.00336859 1.21169e-21)
(0.0851054 0.00679316 -1.11361e-21)
(0.0828398 0.00991954 0)
(0.080541 0.012738 0)
(0.078236 0.0152459 6.76927e-21)
(0.0759488 0.0174467 -1.27635e-20)
(0.0737006 0.0193484 5.41488e-21)
(0.0715081 0.0209621 -1.2392e-20)
(0.0693809 0.0222975 1.38217e-20)
(0.0673295 0.023368 0)
(0.0653963 0.024213 -1.29788e-20)
(0.0638467 0.0251135 1.02557e-20)
(0.0805976 -0.0519221 -3.75127e-20)
(0.081158 -0.0506032 3.64881e-20)
(0.0820656 -0.0492613 -3.86765e-20)
(0.0829462 -0.047539 6.26905e-23)
(0.0837196 -0.0454082 4.21688e-22)
(0.0843548 -0.0428874 5.69766e-20)
(0.0848281 -0.0400073 -1.77833e-20)
(0.0851125 -0.0368035 -1.95041e-21)
(0.0851835 -0.0333198 1.34375e-20)
(0.0850235 -0.0296085 -2.5559e-20)
(0.0846221 -0.0257278 1.20288e-20)
(0.0839775 -0.0217399 4.63336e-21)
(0.0830956 -0.0177073 -5.63809e-21)
(0.0819897 -0.0136906 2.06598e-21)
(0.0806788 -0.00974567 -1.12757e-19)
(0.0791863 -0.00592211 1.12115e-19)
(0.0775378 -0.00226203 -2.96103e-22)
(0.07576 0.00120032 1.79033e-21)
(0.073879 0.00443839 -1.25273e-21)
(0.0719201 0.00743279 -5.28601e-21)
(0.0699065 0.0101706 1.16085e-20)
(0.0678599 0.0126445 -6.17471e-21)