/*--------------------------------*- C++ -*----------------------------------*\
  =========                 |
  \\      /  F ield         | OpenFOAM: The Open Source CFD Toolbox
   \\    /   O peration     | Website:  https://openfoam.org
    \\  /    A nd           | Version:  12
     \\/     M anipulation  |
\*---------------------------------------------------------------------------*/
FoamFile
{
    format      ascii;
    class       volVectorField;
    location    "160";
    object      UMean;
}
// * * * * * * * * * * * * * * * * * * * * * * * * * * * * * * * * * * * * * //

dimensions      [0 1 -1 0 0 0 0];

internalField   nonuniform List<vector> 
6750
(
(0.200077 -0.00305034 0)
(0.200392 -0.00919706 0)
(0.200705 -0.0147633 0)
(0.200975 -0.0198538 0)
(0.200902 -0.0245839 0)
(0.200036 -0.00345915 0)
(0.200295 -0.00985623 0)
(0.20052 -0.0153778 0)
(0.200629 -0.0202127 0)
(0.200554 -0.0244719 0)
(0.200026 -0.00362928 0)
(0.200137 -0.0101088 0)
(0.200174 -0.0155236 0)
(0.200084 -0.0201042 0)
(0.199881 -0.0239761 0)
(0.200009 -0.00366699 0)
(0.199967 -0.0100804 0)
(0.19981 -0.0153263 0)
(0.199537 -0.0196707 0)
(0.1992 -0.0232736 0)
(0.199994 -0.00360297 0)
(0.199809 -0.00982065 0)
(0.199467 -0.0148402 0)
(0.199015 -0.0189516 0)
(0.19853 -0.0223373 0)
(0.199982 -0.00345432 0)
(0.199666 -0.00936344 0)
(0.199145 -0.014098 0)
(0.19851 -0.0179564 0)
(0.197858 -0.0211279 0)
(0.199972 -0.00323529 0)
(0.199531 -0.00873601 0)
(0.198836 -0.0131251 0)
(0.198013 -0.0166956 0)
(0.197181 -0.0196325 0)
(0.199962 -0.00295696 0)
(0.199403 -0.00796141 0)
(0.198537 -0.0119457 0)
(0.197527 -0.0151871 0)
(0.196508 -0.0178585 0)
(0.199954 -0.0026291 0)
(0.199283 -0.00706256 0)
(0.198256 -0.0105885 0)
(0.197066 -0.0134598 0)
(0.195863 -0.0158318 0)
(0.199946 -0.00226169 0)
(0.199175 -0.00606452 0)
(0.198001 -0.00908785 0)
(0.196646 -0.011553 0)
(0.195272 -0.0135947 0)
(0.199939 -0.0018653 0)
(0.199082 -0.00499448 0)
(0.197781 -0.00748266 0)
(0.196282 -0.00951419 0)
(0.194758 -0.0112005 0)
(0.199934 -0.00145082 0)
(0.199008 -0.00388051 0)
(0.197603 -0.00581389 0)
(0.195988 -0.00739406 0)
(0.19434 -0.00870795 0)
(0.199931 -0.00102877 0)
(0.198954 -0.00274985 0)
(0.197471 -0.00412162 0)
(0.19577 -0.00524294 0)
(0.19403 -0.00617628 0)
(0.199927 -0.000608573 0)
(0.198921 -0.00162753 0)
(0.197388 -0.00244221 0)
(0.195631 -0.00310675 0)
(0.193831 -0.0036601 0)
(0.199917 -0.000201991 0)
(0.198916 -0.000533379 0)
(0.197351 -0.000804605 0)
(0.195566 -0.00102381 0)
(0.193737 -0.00120615 0)
(0.199917 0.000201786 0)
(0.198916 0.000532999 0)
(0.197351 0.000804137 0)
(0.195566 0.0010233 0)
(0.193737 0.00120561 0)
(0.199927 0.000608367 0)
(0.198921 0.00162715 0)
(0.197388 0.00244174 0)
(0.195631 0.00310624 0)
(0.193831 0.00365956 0)
(0.199931 0.00102857 0)
(0.198954 0.00274948 0)
(0.197471 0.00412116 0)
(0.19577 0.00524244 0)
(0.19403 0.00617575 0)
(0.199934 0.00145061 0)
(0.199008 0.00388014 0)
(0.197603 0.00581343 0)
(0.195988 0.00739356 0)
(0.19434 0.00870742 0)
(0.199939 0.0018651 0)
(0.199082 0.00499411 0)
(0.197781 0.00748221 0)
(0.196282 0.0095137 0)
(0.194758 0.0112 0)
(0.199946 0.0022615 0)
(0.199175 0.00606415 0)
(0.198001 0.00908741 0)
(0.196646 0.0115526 0)
(0.195272 0.0135942 0)
(0.199954 0.00262892 0)
(0.199283 0.0070622 0)
(0.198256 0.0105881 0)
(0.197066 0.0134593 0)
(0.195863 0.0158314 0)
(0.199962 0.00295679 0)
(0.199403 0.00796107 0)
(0.198537 0.0119453 0)
(0.197527 0.0151867 0)
(0.196508 0.017858 0)
(0.199972 0.00323513 0)
(0.199531 0.00873568 0)
(0.198836 0.0131246 0)
(0.198013 0.0166952 0)
(0.197181 0.019632 0)
(0.199982 0.00345418 0)
(0.199666 0.00936313 0)
(0.199145 0.0140976 0)
(0.19851 0.0179559 0)
(0.197858 0.0211273 0)
(0.199994 0.00360284 0)
(0.199809 0.00982035 0)
(0.199467 0.0148398 0)
(0.199015 0.0189511 0)
(0.19853 0.0223367 0)
(0.200009 0.00366688 0)
(0.199967 0.0100801 0)
(0.19981 0.0153259 0)
(0.199537 0.0196702 0)
(0.1992 0.023273 0)
(0.200026 0.00362918 0)
(0.200137 0.0101085 0)
(0.200174 0.0155232 0)
(0.200084 0.0201036 0)
(0.199881 0.0239754 0)
(0.200036 0.00345906 0)
(0.200295 0.00985596 0)
(0.20052 0.0153773 0)
(0.200629 0.020212 0)
(0.200554 0.0244711 0)
(0.200077 0.00305025 0)
(0.200392 0.00919678 0)
(0.200705 0.0147629 0)
(0.200975 0.0198532 0)
(0.200902 0.024583 0)
(0.199146 -0.0350505 0)
(0.197736 -0.0398978 0)
(0.19658 -0.0442791 0)
(0.195842 -0.0481586 -3.99467e-23)
(0.195385 -0.0514438 0)
(0.195154 -0.054086 0)
(0.195136 -0.056029 2.21074e-21)
(0.195319 -0.057188 -2.21229e-21)
(0.195678 -0.0574616 -1.17109e-23)
(0.196152 -0.0567902 -8.26648e-22)
(0.196711 -0.0550326 6.38013e-23)
(0.197276 -0.0520947 5.20127e-23)
(0.197771 -0.0480184 3.58512e-22)
(0.198115 -0.0428703 3.24202e-22)
(0.198234 -0.0367893 7.57214e-22)
(0.198074 -0.0299794 -7.57443e-22)
(0.197609 -0.0226933 3.58957e-22)
(0.19684 -0.0152056 4.28008e-22)
(0.195797 -0.00778981 1.069e-22)
(0.194533 -0.000691766 1.36084e-22)
(0.193106 0.00589079 -1.01533e-21)
(0.191595 0.0118425 1.82968e-23)
(0.190082 0.0170527 -2.9114e-21)
(0.188629 0.0214774 2.88562e-21)
(0.187287 0.025117 0)
(0.186098 0.0280013 0)
(0.18509 0.0301786 6.00335e-23)
(0.18429 0.031709 0)
(0.183728 0.0326632 0)
(0.183374 0.0330843 0)
(0.198414 -0.0380579 0)
(0.197158 -0.0428053 0)
(0.196259 -0.0467921 0)
(0.195688 -0.050216 3.76881e-23)
(0.195336 -0.053069 0)
(0.195187 -0.0553188 0)
(0.19524 -0.0569031 -9.84886e-22)
(0.195481 -0.0577344 9.78758e-22)
(0.195881 -0.0577198 1.09924e-23)
(0.196384 -0.056806 0)
(0.196954 -0.0548417 0)
(0.19751 -0.0517803 6.64752e-22)
(0.197984 -0.0476606 -6.66852e-22)
(0.198299 -0.0425517 0)
(0.198387 -0.0365861 2.49861e-21)
(0.198203 -0.0299527 -2.49667e-21)
(0.197721 -0.022881 0)
(0.196946 -0.0156207 -7.76857e-22)
(0.195908 -0.00841798 7.7848e-22)
(0.194655 -0.00149604 0)
(0.19325 0.00496386 0)
(0.191759 0.0108415 -1.71177e-23)
(0.190251 0.0160387 2.4538e-21)
(0.188792 0.0205085 -2.47695e-21)
(0.187432 0.0242422 0)
(0.186209 0.0272605 0)
(0.18515 0.0296028 -5.64733e-23)
(0.184278 0.031319 0)
(0.183623 0.0324717 0)
(0.183189 0.0331182 0)
(0.197718 -0.0403835 0)
(0.196745 -0.0446682 0)
(0.196007 -0.0482828 0)
(0.195519 -0.0514146 -8.25489e-23)
(0.195235 -0.0540242 8.43375e-23)
(0.195156 -0.056057 -7.55358e-23)
(0.195277 -0.0574395 7.62693e-23)
(0.195583 -0.0580818 -9.52574e-24)
(0.196036 -0.0578997 0)
(0.196587 -0.0568358 0)
(0.19719 -0.0547397 9.81459e-24)
(0.197765 -0.0515949 0)
(0.198242 -0.0474344 0)
(0.198543 -0.0423298 6.07381e-24)
(0.198604 -0.0364119 5.14393e-21)
(0.19838 -0.0298631 -5.14281e-21)
(0.197852 -0.0229023 -9.42296e-24)
(0.197027 -0.0157654 0)
(0.195937 -0.00868442 0)
(0.194633 -0.00186866 -4.87645e-23)
(0.193179 0.00451013 0)
(0.191643 0.0103225 0)
(0.190092 0.0154891 4.50095e-23)
(0.188588 0.0199622 3.64195e-21)
(0.187181 0.02373 -3.608e-21)
(0.185907 0.026809 4.26373e-21)
(0.184793 0.0292334 -4.22172e-21)
(0.183856 0.0310484 0)
(0.183127 0.0323169 0)
(0.182662 0.0331462 0)
(0.197097 -0.0424658 0)
(0.196321 -0.0463711 -1.40591e-21)
(0.195677 -0.0496901 6.18865e-22)
(0.195256 -0.0525685 1.67282e-21)
(0.195042 -0.0549485 -1.69986e-21)
(0.195035 -0.0567672 8.38116e-22)
(0.195227 -0.0579478 0)
(0.195603 -0.0584017 2.46927e-23)
(0.196115 -0.0580569 0)
(0.196727 -0.0568383 0)
(0.197374 -0.0546152 -3.29954e-22)
(0.19798 -0.0513891 3.16917e-22)
(0.19847 -0.0471889 0)
(0.198764 -0.0420889 -6.3767e-24)
(0.198797 -0.0362184 8.52189e-21)
(0.198526 -0.0297535 -8.51661e-21)
(0.197934 -0.0229031 9.88988e-24)
(0.197032 -0.0158909 0)
(0.195857 -0.0089356 1.80296e-21)
(0.194464 -0.00223405 -1.67853e-21)
(0.19292 0.00405139 -6.92116e-23)
(0.191296 0.00979944 0)
(0.189663 0.0149303 1.51724e-22)
(0.18808 0.0193993 0)
(0.186598 0.0231941 -4.86932e-21)
(0.185254 0.0263277 9.70395e-21)
(0.184073 0.0288302 -1.002e-20)
(0.183067 0.0307406 -5.47284e-21)
(0.182267 0.0321193 1.04644e-20)
(0.181791 0.0331282 0)
(0.196449 -0.0444442 0)
(0.195794 -0.0480248 3.72329e-21)
(0.195229 -0.0510728 -3.62847e-21)
(0.194879 -0.0537054 0)
(0.194739 -0.055859 0)
(0.194806 -0.0574664 6.65957e-23)
(0.195072 -0.0584482 0)
(0.19552 -0.0587166 -2.56793e-23)
(0.196099 -0.0582109 2.76145e-22)
(0.196773 -0.0568344 -3.1575e-22)
(0.197468 -0.0544867 1.81385e-22)
(0.198108 -0.0511752 -1.79126e-22)
(0.198611 -0.0469294 -1.87758e-23)
(0.198896 -0.0418263 1.46943e-23)
(0.198898 -0.0359937 1.26539e-20)
(0.198572 -0.0296029 -1.26463e-20)
(0.197906 -0.0228543 -2.96911e-23)
(0.196913 -0.0159604 6.78595e-23)
(0.195634 -0.00912801 -2.31166e-21)
(0.194131 -0.00254229 2.23231e-21)
(0.192474 0.00364402 2.69239e-21)
(0.190738 0.00931696 -2.60117e-21)
(0.188997 0.0144001 -1.59006e-22)
(0.187312 0.0188515 0)
(0.185734 0.0226587 1.95639e-22)
(0.184301 0.025833 0)
(0.183038 0.028401 0)
(0.181954 0.0303966 1.22644e-20)
(0.181078 0.0318749 -1.16966e-20)
(0.180588 0.0330527 0)
(0.19571 -0.0463265 6.03389e-21)
(0.195135 -0.0496035 -9.35395e-21)
(0.194646 -0.0523969 2.99218e-21)
(0.194371 -0.054798 0)
(0.194306 -0.0567379 2.74074e-21)
(0.194448 -0.0581445 -2.65094e-21)
(0.19479 -0.0589367 2.09129e-21)
(0.195311 -0.0590286 -2.11362e-21)
(0.195957 -0.0583645 0)
(0.196693 -0.0568313 -3.43608e-23)
(0.197434 -0.0543605 -5.29358e-23)
(0.198104 -0.0509593 -1.59e-22)
(0.198617 -0.0466598 -1.55143e-22)
(0.198889 -0.0415416 3.93913e-22)
(0.198853 -0.0357326 1.76201e-20)
(0.198468 -0.0294001 -1.76215e-20)
(0.19772 -0.0227379 1.17789e-21)
(0.196629 -0.0159493 -2.91599e-24)
(0.195239 -0.00923044 1.55087e-21)
(0.193614 -0.00275626 -2.82596e-21)
(0.191833 0.00332973 -2.09865e-22)
(0.189972 0.00892041 0)
(0.188108 0.0139445 6.85429e-21)
(0.186305 0.0183631 -7.01781e-21)
(0.184616 0.022165 7.31191e-21)
(0.183081 0.0253608 -6.9696e-21)
(0.181723 0.027975 -4.67608e-22)
(0.180552 0.0300375 -7.0773e-21)
(0.179591 0.031598 1.99154e-20)
(0.179075 0.032924 -1.37816e-20)
(0.194843 -0.048105 -4.12073e-21)
(0.194324 -0.0510976 4.65001e-21)
(0.19391 -0.0536573 4.41004e-21)
(0.19371 -0.0558445 -4.46411e-21)
(0.193721 -0.0575848 3.75549e-21)
(0.193938 -0.0588017 -4.00338e-21)
(0.194356 -0.059413 -1.36953e-22)
(0.194948 -0.0593369 0)
(0.195662 -0.0585146 8.33952e-22)
(0.196453 -0.0568269 -3.62571e-22)
(0.197236 -0.0542327 -4.11176e-22)
(0.197931 -0.0507369 -5.65283e-23)
(0.198446 -0.0463751 4.25491e-22)
(0.198698 -0.04123 -7.92967e-22)
(0.198619 -0.03543 2.38062e-20)
(0.198169 -0.0291399 -2.28868e-20)
(0.197338 -0.0225481 -1.94481e-21)
(0.196145 -0.0158505 1.54544e-21)
(0.194641 -0.00923438 3.40442e-21)
(0.192893 -0.00286537 5.02466e-22)
(0.190983 0.00312146 4.36779e-22)
(0.188992 0.00862586 -3.81618e-21)
(0.186998 0.0135819 0)
(0.18507 0.0179545 -3.01729e-22)
(0.183261 0.0217343 7.81555e-21)
(0.181614 0.0249324 -8.20103e-21)
(0.180152 0.0275724 8.22048e-21)
(0.178883 0.0296814 -7.61763e-21)
(0.17783 0.0313047 -7.05662e-21)
(0.177272 0.0327532 8.02194e-21)
(0.193817 -0.0497833 0)
(0.193342 -0.0525143 5.08133e-21)
(0.192999 -0.0548621 -6.15221e-21)
(0.192874 -0.0568521 5.41739e-21)
(0.192959 -0.0584047 -5.19018e-21)
(0.193253 -0.0594409 4.06816e-21)
(0.193746 -0.0598776 -4.14579e-21)
(0.194403 -0.05964 -2.34803e-22)
(0.195182 -0.0586558 -9.27265e-23)
(0.196022 -0.0568158 -6.44386e-23)
(0.19684 -0.0540963 -2.29868e-23)
(0.197551 -0.0504999 -4.46768e-24)
(0.198061 -0.0460671 5.16094e-22)
(0.198286 -0.040884 -1.00076e-22)
(0.198159 -0.0350797 2.98866e-20)
(0.197641 -0.0288177 -3.09685e-20)
(0.196723 -0.0222821 -9.26614e-22)
(0.19543 -0.0156624 1.38347e-21)
(0.193812 -0.00913845 -1.26458e-22)
(0.191943 -0.00286766 -5.20678e-22)
(0.189905 0.00302263 -2.91509e-22)
(0.187784 0.00843884 -3.03748e-22)
(0.185661 0.0133204 -6.23455e-22)
(0.183605 0.0176362 1.0231e-20)
(0.181673 0.0213796 -1.01844e-20)
(0.179908 0.0245628 9.62731e-21)
(0.178335 0.0272093 -8.92583e-21)
(0.176963 0.0293448 8.16664e-21)
(0.175812 0.0310113 -9.74559e-21)
(0.175198 0.0325549 0)
(0.192603 -0.0513706 0)
(0.192164 -0.053863 4.55896e-22)
(0.191892 -0.0560183 -5.71817e-21)
(0.19184 -0.057825 3.68561e-22)
(0.191999 -0.0591997 6.38821e-21)
(0.192367 -0.0600621 3.30782e-22)
(0.192933 -0.0603285 3.35315e-22)
(0.193651 -0.0599324 -1.62047e-21)
(0.194488 -0.0587825 2.03584e-21)
(0.19537 -0.0567917 -1.16256e-23)
(0.196215 -0.0539422 -1.27423e-22)
(0.196933 -0.0502389 1.28184e-22)
(0.197429 -0.0457267 2.53562e-22)
(0.197619 -0.0404954 -2.77416e-22)
(0.197439 -0.0346754 3.81582e-20)
(0.196849 -0.028429 -3.81669e-20)
(0.195844 -0.0219372 -9.29491e-22)
(0.194451 -0.015384 1.0455e-21)
(0.192724 -0.00894243 -2.19809e-21)
(0.190738 -0.0027629 2.9219e-21)
(0.188578 0.00303437 -3.18656e-23)
(0.186332 0.0083621 -5.47585e-21)
(0.184083 0.013165 6.04041e-21)
(0.181902 0.0174159 7.29327e-22)
(0.179848 0.0211111 6.63045e-22)
(0.177965 0.0242646 -1.10872e-20)
(0.17628 0.0269004 -3.32742e-23)
(0.174801 0.0290436 1.21387e-20)
(0.173548 0.0307347 0)
(0.172863 0.032346 0)
(0.191172 -0.0528765 0)
(0.190766 -0.0551514 -8.49963e-21)
(0.190564 -0.0571303 3.73659e-22)
(0.190583 -0.058765 4.68538e-22)
(0.190815 -0.0599694 1.41912e-20)
(0.191255 -0.0606627 -7.14294e-21)
(0.191888 -0.0607625 -3.5046e-22)
(0.192664 -0.0602055 0)
(0.193551 -0.0588871 1.57637e-21)
(0.194466 -0.0567441 -1.65443e-21)
(0.195327 -0.0537599 1.68638e-22)
(0.196043 -0.0499433 -3.9026e-22)
(0.196517 -0.0453442 2.21619e-22)
(0.196665 -0.0400558 -2.7067e-23)
(0.196426 -0.0342104 4.71806e-20)
(0.195762 -0.0279694 -4.7212e-20)
(0.19467 -0.021511 6.45868e-23)
(0.193181 -0.0150145 2.43458e-21)
(0.19135 -0.008647 2.60162e-22)
(0.189253 -0.00255228 -3.36295e-21)
(0.186979 0.00315585 6.41242e-21)
(0.184616 0.00839596 -6.03879e-21)
(0.182248 0.0131177 0)
(0.179948 0.0172979 -7.6232e-22)
(0.177776 0.0209359 1.28152e-20)
(0.175778 0.0240475 -2.615e-20)
(0.173981 0.0266577 -1.71665e-23)
(0.172394 0.0287919 -5.9374e-22)
(0.171039 0.0304903 1.19508e-20)
(0.170274 0.0321437 0)
(0.189495 -0.05431 -1.29182e-21)
(0.189122 -0.0563855 0)
(0.188988 -0.0582007 -5.58864e-22)
(0.189079 -0.0596718 8.20567e-21)
(0.189381 -0.0607109 -9.01096e-21)
(0.18989 -0.0612375 7.47136e-21)
(0.190581 -0.061173 -7.47917e-21)
(0.191413 -0.0604487 -2.63676e-21)
(0.19234 -0.0589596 5.01553e-21)
(0.193279 -0.0566613 -6.72572e-22)
(0.194148 -0.0535373 -1.20207e-21)
(0.19485 -0.0496015 -2.43858e-22)
(0.195293 -0.0449089 -1.08971e-22)
(0.195394 -0.0395563 6.77241e-22)
(0.19509 -0.0336778 5.71802e-20)
(0.19435 -0.0274343 -5.79676e-20)
(0.193174 -0.0210014 1.66641e-21)
(0.191591 -0.014554 1.5646e-21)
(0.189662 -0.00825364 -2.76767e-21)
(0.187463 -0.0022382 7.38111e-21)
(0.185083 0.00338451 8.33363e-22)
(0.182612 0.00853847 -1.31307e-20)
(0.180134 0.013178 7.07433e-21)
(0.177724 0.0172836 1.46623e-20)
(0.175442 0.0208575 -1.44592e-20)
(0.173334 0.0239176 1.43675e-20)
(0.171429 0.0264901 -1.51396e-20)
(0.169737 0.028601 9.1161e-22)
(0.16828 0.0302914 0)
(0.167429 0.0319639 -1.54371e-21)
(0.187543 -0.0556786 1.34356e-21)
(0.187203 -0.057569 -1.16446e-20)
(0.187137 -0.0592294 1.11285e-20)
(0.187297 -0.0605423 6.27325e-22)
(0.187668 -0.0614186 5.92033e-22)
(0.188241 -0.0617781 0)
(0.188984 -0.0615494 -5.2043e-22)
(0.189865 -0.0606498 -3.4923e-21)
(0.190823 -0.0589882 5.24912e-21)
(0.191777 -0.0565302 -2.43755e-21)
(0.192643 -0.0532612 -5.80115e-23)
(0.193324 -0.0492009 -2.77141e-22)
(0.193728 -0.0444095 2.78636e-22)
(0.193773 -0.0389875 3.50776e-23)
(0.193402 -0.0330705 6.9082e-20)
(0.192585 -0.0268191 -6.9047e-20)
(0.191325 -0.0204061 -8.3506e-23)
(0.189654 -0.0140025 3.16083e-21)
(0.187632 -0.00776435 -3.14377e-21)
(0.185339 -0.00182393 -4.34221e-22)
(0.182864 0.00371649 7.40324e-21)
(0.180295 0.00878592 -1.63864e-20)
(0.177719 0.0133429 6.96359e-21)
(0.175208 0.0173716 -1.07628e-21)
(0.172825 0.0208766 0)
(0.170615 0.0238781 9.81856e-22)
(0.168608 0.0264032 9.66885e-22)
(0.166816 0.0284791 -1.55053e-20)
(0.165262 0.0301485 1.43054e-20)
(0.164322 0.0318203 1.60536e-21)
(0.185282 -0.056987 0)
(0.184977 -0.0587024 -7.28958e-23)
(0.184978 -0.0602133 1.21632e-20)
(0.185206 -0.0613705 -1.24004e-20)
(0.185642 -0.0620841 -1.07839e-20)
(0.186275 -0.062275 1.62845e-20)
(0.187068 -0.0618772 -4.32068e-21)
(0.187988 -0.0607952 -3.78554e-23)
(0.188968 -0.0589583 -3.99734e-22)
(0.189928 -0.0563354 0)
(0.190781 -0.0529167 -2.57625e-22)
(0.191432 -0.0487278 -6.16709e-23)
(0.191788 -0.043834 3.23066e-22)
(0.191773 -0.0383394 -3.67047e-23)
(0.191331 -0.032381 8.21933e-20)
(0.190437 -0.0261189 -8.223e-20)
(0.189094 -0.0197231 8.73822e-23)
(0.187339 -0.0133602 3.57549e-21)
(0.185234 -0.00718144 -7.49394e-21)
(0.182856 -0.00131334 3.90948e-21)
(0.180295 0.00414699 0)
(0.177641 0.00913324 -1.17241e-21)
(0.174977 0.0136079 -8.99951e-23)
(0.172377 0.0175582 1.052e-20)
(0.169903 0.0209913 -2.67453e-20)
(0.167601 0.0239291 1.83932e-20)
(0.1655 0.0263996 1.81495e-20)
(0.163613 0.0284313 -1.8874e-20)
(0.161967 0.0300689 -8.47918e-23)
(0.160939 0.031724 0)
(0.182677 -0.0582366 0)
(0.18241 -0.0597826 -1.32515e-20)
(0.182478 -0.0611457 1.4419e-20)
(0.182772 -0.0621469 1.21865e-20)
(0.183272 -0.0626953 -1.33001e-20)
(0.183957 -0.0627152 -6.11931e-21)
(0.184795 -0.0621392 8.17537e-22)
(0.185747 -0.060869 5.36286e-21)
(0.18674 -0.0588524 8.62842e-22)
(0.187697 -0.05606 0)
(0.188528 -0.0524878 0)
(0.189138 -0.0481675 3.69752e-22)
(0.189441 -0.0431697 -4.26233e-22)
(0.18936 -0.0376017 0)
(0.188845 -0.0316018 9.69236e-20)
(0.187873 -0.0253289 -9.69269e-20)
(0.186451 -0.0189501 0)
(0.184619 -0.0126277 -3.78355e-21)
(0.182437 -0.00650749 4.55621e-21)
(0.179984 -0.000710777 0)
(0.177349 0.00467044 0)
(0.17462 0.00957424 2.54139e-21)
(0.171881 0.0139667 -9.27015e-21)
(0.169203 0.017838 -2.11018e-22)
(0.166649 0.0211972 9.14339e-21)
(0.164265 0.0240678 2.07836e-20)
(0.162079 0.0264787 -2.17208e-20)
(0.160106 0.0284593 -1.97223e-20)
(0.158374 0.0300567 2.04541e-20)
(0.15726 0.0316822 0)
(0.179688 -0.0594247 0)
(0.179461 -0.0608007 0)
(0.179596 -0.062016 0)
(0.179957 -0.0628584 -1.37375e-20)
(0.180517 -0.0632363 7.13032e-21)
(0.181249 -0.0630813 7.63882e-21)
(0.182128 -0.0623152 7.46432e-22)
(0.183102 -0.0608526 4.33593e-21)
(0.1841 -0.0586513 -1.15747e-21)
(0.185045 -0.0556851 -3.25039e-21)
(0.185844 -0.0519568 -8.1512e-23)
(0.186408 -0.0475042 1.90218e-23)
(0.186649 -0.042403 7.02e-22)
(0.186499 -0.0367634 -5.49846e-22)
(0.185908 -0.0307246 1.13378e-19)
(0.18486 -0.0244439 -1.13373e-19)
(0.183363 -0.0180849 -2.11249e-21)
(0.181459 -0.0118052 1.44997e-21)
(0.179209 -0.00574536 -1.19244e-21)
(0.176691 -2.10839e-05 -6.70148e-22)
(0.173993 0.00528051 1.12379e-20)
(0.171202 0.0101017 6.07801e-22)
(0.1684 0.0144118 -1.14421e-20)
(0.165658 0.0182035 1.52968e-21)
(0.163035 0.0214877 -1.028e-20)
(0.160579 0.0242889 -1.32379e-20)
(0.158319 0.0266367 2.42304e-20)
(0.156268 0.0285614 0)
(0.154458 0.0301124 0)
(0.153263 0.0316987 0)
(0.17627 -0.0605412 -1.79391e-20)
(0.176087 -0.0617452 1.89364e-20)
(0.17629 -0.0628092 0)
(0.176716 -0.0634873 -8.16961e-21)
(0.177333 -0.0636884 9.1987e-21)
(0.17811 -0.0633495 6.76772e-21)
(0.179023 -0.0623832 -8.5328e-21)
(0.180011 -0.0607236 0)
(0.181007 -0.0583326 -5.13777e-22)
(0.18193 -0.0551896 0)
(0.18269 -0.0513042 -1.86344e-24)
(0.183198 -0.0467208 5.0225e-24)
(0.183374 -0.0415195 -1.18951e-22)
(0.183149 -0.0358132 -1.12357e-22)
(0.182483 -0.0297411 1.3186e-19)
(0.18136 -0.0234586 -1.31879e-19)
(0.179793 -0.0171254 2.59167e-22)
(0.177824 -0.0108937 5.99105e-22)
(0.175515 -0.00489837 -4.77267e-23)
(0.172943 0.000750256 -5.17466e-23)
(0.170195 0.00597002 0)
(0.167354 0.0107072 -1.53833e-21)
(0.164502 0.0149342 0)
(0.161707 0.0186456 9.98513e-21)
(0.159029 0.0218541 -1.29218e-20)
(0.156513 0.0245847 -1.14756e-20)
(0.154187 0.0268673 1.27722e-20)
(0.152067 0.0287328 0)
(0.150187 0.0302331 -2.10743e-20)
(0.148917 0.0317734 2.27791e-20)
(0.172372 -0.061571 0)
(0.172238 -0.0625984 9.20184e-23)
(0.172511 -0.0635049 2.0435e-20)
(0.173003 -0.0640105 -1.94082e-20)
(0.173671 -0.0640277 1.12623e-21)
(0.174492 -0.0634917 -2.00623e-21)
(0.175432 -0.0623173 8.63489e-22)
(0.176428 -0.0604556 0)
(0.177413 -0.0578708 0)
(0.178306 -0.0545496 0)
(0.179018 -0.0505086 9.0334e-23)
(0.179465 -0.0457985 6.06668e-22)
(0.179568 -0.0405035 -1.3424e-21)
(0.179268 -0.0347386 1.4656e-21)
(0.178526 -0.0286425 1.51711e-19)
(0.177331 -0.0223678 -1.53419e-19)
(0.1757 -0.0160694 3.42057e-21)
(0.173674 -0.00989408 -8.49361e-21)
(0.171316 -0.00397045 6.35857e-21)
(0.168702 0.00159688 7.8056e-22)
(0.165915 0.00673063 8.87813e-22)
(0.163038 0.0113809 0)
(0.160149 0.015523 0)
(0.157314 0.0191532 1.77432e-21)
(0.154593 0.0222852 -3.67899e-21)
(0.152028 0.0249445 1.88889e-21)
(0.149648 0.0271609 2.85745e-20)
(0.147469 0.0289655 -2.60945e-20)
(0.145527 0.0304124 1.30137e-22)
(0.144188 0.0319022 0)
(0.167938 -0.0624902 -2.18612e-20)
(0.167856 -0.0633379 2.02933e-20)
(0.168201 -0.0640763 9.2731e-21)
(0.168759 -0.0643985 -1.07547e-20)
(0.16948 -0.0642224 -1.02844e-20)
(0.170341 -0.0634747 1.05012e-20)
(0.1713 -0.0620873 7.14172e-21)
(0.172298 -0.060018 -6.431e-21)
(0.173264 -0.0572369 2.42654e-21)
(0.174117 -0.0537382 -2.13209e-21)
(0.174775 -0.049546 3.66356e-22)
(0.175153 -0.0447165 -6.41549e-22)
(0.175182 -0.0393378 2.88443e-22)
(0.174804 -0.0335264 -7.5033e-23)
(0.173987 -0.0274195 1.75025e-19)
(0.172725 -0.021166 -1.75053e-19)
(0.171035 -0.0149156 1.68212e-22)
(0.168961 -0.00880831 3.55777e-21)
(0.166565 -0.00296655 3.81946e-21)
(0.163922 0.00251113 -6.89491e-21)
(0.161111 0.00755244 6.91475e-21)
(0.158211 0.0121112 -6.693e-21)
(0.155299 0.0161653 1.85619e-20)
(0.152439 0.0197125 -1.61512e-20)
(0.149686 0.0227671 -1.4475e-20)
(0.147085 0.0253546 1.41394e-20)
(0.144661 0.0275044 1.59205e-20)
(0.142432 0.0292474 -1.74041e-20)
(0.140436 0.0306394 -2.99816e-20)
(0.139036 0.0320762 2.84569e-20)
(0.162901 -0.0632695 -1.53636e-21)
(0.162874 -0.0639306 -2.3783e-20)
(0.163295 -0.0644874 2.61984e-20)
(0.16392 -0.0646147 0)
(0.164693 -0.0642314 -1.38197e-21)
(0.16559 -0.0632611 0)
(0.166564 -0.061655 -1.11158e-21)
(0.167556 -0.0593744 6.35576e-21)
(0.168495 -0.0563969 -6.75376e-21)
(0.169303 -0.0527246 2.33069e-22)
(0.169897 -0.048389 -1.99216e-22)
(0.170203 -0.0434516 4.24093e-23)
(0.170152 -0.0380039 8.59098e-23)
(0.169696 -0.0321625 7.78817e-23)
(0.168807 -0.0260625 2.00013e-19)
(0.167482 -0.0198481 -2.00028e-19)
(0.165742 -0.0136626 -1.74598e-22)
(0.163632 -0.00763922 -4.02278e-22)
(0.16121 -0.00189307 9.61525e-22)
(0.158551 0.0034835 0)
(0.15573 0.00842329 1.10172e-21)
(0.152824 0.0128839 1.69339e-20)
(0.149903 0.0168452 -1.75148e-20)
(0.147031 0.0203066 -2.36797e-21)
(0.144261 0.0232822 0)
(0.141635 0.0257974 -2.34211e-21)
(0.139179 0.0278804 0)
(0.136909 0.0295619 -3.18967e-20)
(0.134868 0.0308989 3.32363e-20)
(0.133412 0.0322815 -1.97997e-21)
(0.157181 -0.0638685 -2.49413e-20)
(0.157217 -0.0643308 2.61569e-20)
(0.157718 -0.0646909 1.23486e-22)
(0.15841 -0.0646125 1.36059e-20)
(0.159238 -0.0640047 -2.20988e-20)
(0.160166 -0.0628053 1.28351e-20)
(0.16115 -0.0609753 1.14423e-21)
(0.162129 -0.0584818 5.74546e-23)
(0.163033 -0.0553109 0)
(0.163786 -0.051473 -2.40692e-22)
(0.164312 -0.0470064 -1.37451e-23)
(0.164539 -0.0419777 1.78728e-22)
(0.164407 -0.0364806 -1.08697e-22)
(0.163873 -0.0306313 7.89471e-22)
(0.162916 -0.0245613 2.26581e-19)
(0.161535 -0.018409 -2.28943e-19)
(0.159755 -0.0123107 1.68198e-21)
(0.157619 -0.00639133 4.81274e-22)
(0.155187 -0.000758635 -9.61717e-21)
(0.152527 0.00450175 8.52386e-21)
(0.149713 0.00932784 -1.13774e-21)
(0.146816 0.0136808 0)
(0.143903 0.0175429 -2.41568e-21)
(0.141035 0.0209139 2.43751e-21)
(0.138262 0.0238082 -1.76951e-20)
(0.135624 0.0262499 4.22986e-20)
(0.133147 0.0282662 -1.69863e-20)
(0.130846 0.0298868 1.9605e-22)
(0.128768 0.0311692 -3.49346e-20)
(0.127263 0.0324977 3.73695e-20)
(0.150683 -0.0642306 0)
(0.150792 -0.0644791 0)
(0.151377 -0.0646286 -1.5679e-20)
(0.152141 -0.0643287 1.27598e-20)
(0.153022 -0.0634837 0)
(0.153978 -0.0620495 -1.42597e-21)
(0.154966 -0.0599924 -1.33321e-21)
(0.155925 -0.057288 -1.0383e-21)
(0.156786 -0.0539312 0)
(0.157477 -0.0499409 0)
(0.157927 -0.0453616 -1.06278e-22)
(0.158071 -0.0402645 -6.22883e-22)
(0.157857 -0.0347445 8.30664e-22)
(0.157247 -0.0289157 9.8547e-23)
(0.156226 -0.0229053 2.57641e-19)
(0.154798 -0.0168445 -2.57756e-19)
(0.15299 -0.0108612 -2.1602e-22)
(0.150844 -0.0050716 3.33098e-21)
(0.148417 0.000424877 -4.32171e-21)
(0.145774 0.00554962 0)
(0.142984 0.010246 0)
(0.140115 0.0144789 0)
(0.137229 0.0182323 0)
(0.134381 0.0215067 -2.91844e-21)
(0.131621 0.0243157 -2.69243e-21)
(0.128985 0.0266822 0)
(0.126499 0.0286314 -2.44314e-20)
(0.124178 0.0301916 1.86464e-20)
(0.122071 0.0314205 0)
(0.120524 0.0326958 0)
(0.143293 -0.0642799 -2.04181e-21)
(0.143487 -0.0642982 0)
(0.144163 -0.0642232 0)
(0.145004 -0.0636828 0)
(0.145935 -0.0625934 0)
(0.146917 -0.06092 0)
(0.147902 -0.0586367 1.36163e-21)
(0.148832 -0.0557286 6.01068e-22)
(0.149642 -0.0521998 -2.86628e-21)
(0.150263 -0.0480771 1.6548e-21)
(0.150631 -0.0434114 1.82221e-21)
(0.150689 -0.0382768 5.80228e-22)
(0.150391 -0.0327684 7.7442e-22)
(0.149709 -0.0269971 -1.45887e-21)
(0.148631 -0.0210838 2.90489e-19)
(0.147168 -0.0151515 -2.9054e-19)
(0.145345 -0.00931829 -4.28097e-21)
(0.143205 -0.00369079 -6.24851e-22)
(0.140802 0.00164066 1.53782e-20)
(0.138197 0.00660492 -2.03659e-20)
(0.135453 0.0111509 7.71453e-22)
(0.132633 0.0152471 1.16671e-20)
(0.129793 0.0188792 1.59991e-21)
(0.126985 0.0220478 2.98062e-21)
(0.124255 0.0247656 0)
(0.121638 0.0270536 0)
(0.119156 0.0289345 0)
(0.116827 0.030435 0)
(0.1147 0.0316118 0)
(0.113117 0.0328348 -2.76096e-21)
(0.134871 -0.0639129 4.31481e-21)
(0.135163 -0.0636852 -1.7253e-20)
(0.13594 -0.0633662 1.79428e-20)
(0.13686 -0.0625731 0)
(0.13784 -0.0612346 -1.46085e-20)
(0.138841 -0.059322 1.68618e-20)
(0.139816 -0.0568195 -1.18412e-20)
(0.140708 -0.0537223 1.00554e-20)
(0.141457 -0.050044 0)
(0.141999 -0.045819 1.34359e-21)
(0.142279 -0.0411031 -1.70031e-21)
(0.142247 -0.0359726 7.0642e-22)
(0.141867 -0.0305211 -9.36661e-22)
(0.141118 -0.0248547 -1.23365e-21)
(0.139994 -0.0190863 3.27221e-19)
(0.138509 -0.0133291 -3.23913e-19)
(0.136689 -0.00769025 -2.01434e-21)
(0.134576 -0.00226552 -4.73514e-21)
(0.13222 0.00286446 1.69873e-20)
(0.129677 0.00763648 1.0972e-21)
(0.127003 0.0120053 -1.38395e-20)
(0.124256 0.0159428 -1.72874e-21)
(0.121486 0.0194363 -3.09362e-20)
(0.118741 0.0224864 2.50805e-20)
(0.116062 0.0251042 -2.39746e-20)
(0.113482 0.0273081 2.67743e-20)
(0.111021 0.0291182 0)
(0.108697 0.0305586 -2.57438e-20)
(0.106561 0.0316843 2.49246e-20)
(0.104948 0.0328561 5.87333e-21)
(0.125241 -0.0629832 1.45553e-20)
(0.125649 -0.0624929 -1.89212e-20)
(0.126534 -0.061913 -1.60411e-20)
(0.127532 -0.060862 1.92095e-20)
(0.128558 -0.0592738 1.81679e-20)
(0.12957 -0.0571296 -3.44167e-20)
(0.130524 -0.0544244 2.22128e-20)
(0.131368 -0.0511642 -5.49173e-21)
(0.132043 -0.0473715 0)
(0.132498 -0.0430873 -1.72075e-21)
(0.132684 -0.0383717 1.64086e-21)
(0.132561 -0.0333012 6.07129e-23)
(0.132102 -0.0279661 9.10681e-22)
(0.131294 -0.0224658 -1.60304e-21)
(0.130137 -0.0169034 3.64535e-19)
(0.128647 -0.0113806 -3.62747e-19)
(0.126852 -0.00599203 -3.72468e-21)
(0.124791 -0.000821679 2.59238e-21)
(0.12251 0.00406039 -8.04827e-22)
(0.120057 0.00859938 -1.71185e-20)
(0.117484 0.012756 1.53746e-20)
(0.114839 0.0165058 3.65718e-21)
(0.112168 0.0198373 1.69541e-20)
(0.109513 0.0227506 -4.1495e-20)
(0.10691 0.025255 5.24666e-20)
(0.10439 0.0273661 -2.55587e-20)
(0.10197 0.0291002 -2.94566e-20)
(0.0996685 0.0304784 2.85138e-20)
(0.097537 0.0315532 2.6401e-20)
(0.0959017 0.0326739 -3.34278e-20)
(0.114178 -0.0612778 2.38704e-20)
(0.114718 -0.0605087 2.83959e-21)
(0.115714 -0.059663 -3.86371e-21)
(0.116786 -0.0583544 -2.10649e-20)
(0.117849 -0.0565263 -2.2254e-21)
(0.118861 -0.0541709 3.1028e-21)
(0.11978 -0.0512949 7.77202e-23)
(0.120559 -0.0479147 0)
(0.12115 -0.0440608 0)
(0.121507 -0.0397803 -1.79947e-21)
(0.121594 -0.035135 1.94587e-21)
(0.12138 -0.0302002 -6.11462e-23)
(0.120848 -0.0250604 0)
(0.119992 -0.0198061 -5.90858e-22)
(0.11882 -0.0145287 4.05262e-19)
(0.117349 -0.00931636 -4.03319e-19)
(0.115608 -0.0042499 -1.57531e-21)
(0.11363 0.00059985 0)
(0.111457 0.0051741 8.1056e-22)
(0.109131 0.00942694 -1.33852e-20)
(0.106694 0.0133253 1.30022e-20)
(0.104189 0.0168481 -1.91545e-21)
(0.101652 0.0199852 0)
(0.0991215 0.0227358 1.97336e-22)
(0.0966273 0.0251067 6.12272e-21)
(0.0941957 0.0271103 -3.90987e-21)
(0.0918435 0.0287588 3.24382e-20)
(0.0895871 0.0300696 -2.65954e-23)
(0.0874789 0.0310914 2.91107e-21)
(0.0858342 0.032159 -2.6369e-20)
(0.101378 -0.0584713 -2.3654e-20)
(0.102061 -0.057425 2.02967e-20)
(0.103162 -0.056317 0)
(0.104298 -0.0547658 -1.93652e-20)
(0.105381 -0.0527264 2.28801e-20)
(0.106371 -0.0502025 -9.44092e-21)
(0.107235 -0.0472125 1.47021e-20)
(0.107932 -0.0437819 -6.39427e-21)
(0.108423 -0.0399484 0)
(0.108673 -0.0357626 0)
(0.108656 -0.0312867 -3.65448e-23)
(0.108355 -0.0265913 1.78225e-22)
(0.107761 -0.0217533 0)
(0.106877 -0.0168514 -1.68059e-22)
(0.105715 -0.0119628 4.47336e-19)
(0.104295 -0.00716039 -4.47377e-19)
(0.102643 -0.00250959 3.49969e-22)
(0.10079 0.00193301 0)
(0.0987698 0.0061207 6.77109e-21)
(0.0966158 0.0100169 -6.56814e-21)
(0.0943624 0.0135948 0)
(0.0920425 0.016837 0)
(0.089687 0.019734 2.05983e-20)
(0.0873245 0.0222839 -3.82382e-20)
(0.0849812 0.0244908 1.56505e-20)
(0.0826786 0.0263631 -3.387e-20)
(0.0804305 0.0279088 3.74052e-20)
(0.0782524 0.0291406 0)
(0.0761958 0.0301025 -3.62053e-20)
(0.0745613 0.0311102 2.87207e-20)
(0.0864159 -0.0540502 -2.45624e-20)
(0.0872371 -0.0527502 2.38805e-20)
(0.0884218 -0.0514088 -2.45199e-20)
(0.089592 -0.0496614 1.17981e-21)
(0.0906636 -0.0474752 1.6196e-21)
(0.0916027 -0.0448653 3.17241e-20)
(0.0923829 -0.0418598 -9.35329e-21)
(0.0929736 -0.0384922 -8.23987e-22)
(0.093347 -0.0348049 4.00014e-21)
(0.0934813 -0.0308497 -6.01297e-21)
(0.0933624 -0.0266855 1.95297e-21)
(0.0929842 -0.0223759 -1.41042e-21)
(0.092349 -0.0179864 2.60028e-21)
(0.0914666 -0.0135813 -2.19258e-21)
(0.0903528 -0.00922144 4.93503e-19)
(0.0890283 -0.00496215 -4.91094e-19)
(0.0875166 -0.000852103 -4.90525e-21)
(0.085843 0.00306735 1.11283e-20)
(0.0840329 0.00676218 -6.66186e-21)
(0.0821115 0.0102055 -1.79194e-20)
(0.0801033 0.0133769 3.65819e-20)
(0.0780317 0.0162623 -1.84677e-20)
(0.0759187 0.018853 -2.31888e-21)