/*--------------------------------*- C++ -*----------------------------------*\
  =========                 |
  \\      /  F ield         | OpenFOAM: The Open Source CFD Toolbox
   \\    /   O peration     | Website:  https://openfoam.org
    \\  /    A nd           | Version:  12
     \\/     M anipulation  |
\*---------------------------------------------------------------------------*/
FoamFile
{
    format      ascii;
    class       volSymmTensorField;
    location    "160";
    object      UPrime2Mean;
}
// * * * * * * * * * * * * * * * * * * * * * * * * * * * * * * * * * * * * * //

dimensions      [0 2 -2 0 0 0 0];

internalField   nonuniform List<symmTensor> 
6750
(
(3.65429e-10 5.73372e-09 0 1.67036e-07 0 0)
(8.56945e-09 1.07884e-07 0 2.30478e-06 0 0)
(2.7794e-08 3.59894e-07 0 7.29283e-06 0 0)
(5.15586e-08 7.25814e-07 0 1.51187e-05 0 0)
(1.23898e-07 1.55943e-06 0 2.54802e-05 0 0)
(3.90398e-11 6.37455e-10 0 1.27929e-07 0 0)
(1.55298e-09 4.50911e-08 0 1.95171e-06 0 0)
(1.07825e-08 2.2102e-07 0 6.29404e-06 0 0)
(3.74604e-08 6.13644e-07 0 1.30128e-05 0 0)
(1.00522e-07 1.33304e-06 0 2.16402e-05 0 0)
(3.21552e-11 6.94363e-10 0 1.16469e-07 0 0)
(1.32331e-09 4.56065e-08 0 1.78494e-06 0 0)
(1.16173e-08 2.42331e-07 0 5.68528e-06 0 0)
(4.51298e-08 6.82437e-07 0 1.15046e-05 0 0)
(1.1707e-07 1.40085e-06 0 1.85917e-05 0 0)
(2.72167e-11 6.3594e-10 0 1.01926e-07 0 0)
(1.98463e-09 5.45898e-08 0 1.5804e-06 0 0)
(1.64638e-08 2.80284e-07 0 4.98632e-06 0 0)
(5.96459e-08 7.53115e-07 0 9.95481e-06 0 0)
(1.42635e-07 1.46804e-06 0 1.58692e-05 0 0)
(2.03778e-11 4.88484e-10 0 8.56224e-08 0 0)
(2.70841e-09 5.98367e-08 0 1.35507e-06 0 0)
(2.18756e-08 3.02676e-07 0 4.26487e-06 0 0)
(7.55204e-08 7.91774e-07 0 8.46122e-06 0 0)
(1.72089e-07 1.503e-06 0 1.34082e-05 0 0)
(1.31412e-11 2.72514e-10 0 6.959e-08 0 0)
(3.27401e-09 6.04237e-08 0 1.12804e-06 0 0)
(2.68856e-08 3.08197e-07 0 3.55715e-06 0 0)
(9.14906e-08 7.99949e-07 0 7.04223e-06 0 0)
(2.04959e-07 1.50487e-06 0 1.11325e-05 0 0)
(9.25713e-12 5.46485e-11 0 5.4884e-08 0 0)
(3.70278e-09 5.79191e-08 0 9.10737e-07 0 0)
(3.15939e-08 3.01527e-07 0 2.88318e-06 0 0)
(1.08001e-07 7.84492e-07 0 5.70773e-06 0 0)
(2.41881e-07 1.47548e-06 0 9.01585e-06 0 0)
(1.08113e-11 -1.18758e-10 0 4.19093e-08 0 0)
(4.06723e-09 5.36109e-08 0 7.09939e-07 0 0)
(3.62399e-08 2.8591e-07 0 2.2575e-06 0 0)
(1.25351e-07 7.48613e-07 0 4.47289e-06 0 0)
(2.82625e-07 1.41282e-06 0 7.06484e-06 0 0)
(1.79381e-11 -2.31867e-10 0 3.07652e-08 0 0)
(4.41179e-09 4.81587e-08 0 5.30167e-07 0 0)
(4.08743e-08 2.62784e-07 0 1.69301e-06 0 0)
(1.43201e-07 6.92959e-07 0 3.35824e-06 0 0)
(3.25636e-07 1.31357e-06 0 5.30542e-06 0 0)
(2.93576e-11 -2.86398e-10 0 2.14431e-08 0 0)
(4.74659e-09 4.18559e-08 0 3.74689e-07 0 0)
(4.53656e-08 2.32886e-07 0 1.201e-06 0 0)
(1.60708e-07 6.18014e-07 0 2.38498e-06 0 0)
(3.68406e-07 1.17644e-06 0 3.76896e-06 0 0)
(4.29645e-11 -2.91709e-10 0 1.39051e-08 0 0)
(5.05978e-09 3.4867e-08 0 2.45767e-07 0 0)
(4.9487e-08 1.97043e-07 0 7.90381e-07 0 0)
(1.76796e-07 5.25517e-07 0 1.57118e-06 0 0)
(4.08001e-07 1.00389e-06 0 2.48367e-06 0 0)
(5.6456e-11 -2.59227e-10 0 8.09785e-09 0 0)
(5.32749e-09 2.73445e-08 0 1.4459e-07 0 0)
(5.29848e-08 1.56435e-07 0 4.66494e-07 0 0)
(1.90435e-07 4.18776e-07 0 9.28229e-07 0 0)
(4.41725e-07 8.0216e-07 0 1.4677e-06 0 0)
(6.74586e-11 -1.98471e-10 0 3.9442e-09 0 0)
(5.51869e-09 1.94734e-08 0 7.12032e-08 0 0)
(5.56379e-08 1.12596e-07 0 2.3061e-07 0 0)
(2.00824e-07 3.02261e-07 0 4.59291e-07 0 0)
(4.67575e-07 5.80143e-07 0 7.26382e-07 0 0)
(7.20461e-11 -1.14701e-10 0 1.33465e-09 0 0)
(5.58794e-09 1.14795e-08 0 2.45471e-08 0 0)
(5.72926e-08 6.72517e-08 0 7.9993e-08 0 0)
(2.07509e-07 1.80954e-07 0 1.59456e-07 0 0)
(4.84477e-07 3.47835e-07 0 2.52236e-07 0 0)
(6.27215e-11 -2.88878e-11 0 1.44035e-10 0 0)
(5.43172e-09 3.64063e-09 0 2.55367e-09 0 0)
(5.79069e-08 2.20784e-08 0 8.53199e-09 0 0)
(2.10495e-07 5.9664e-08 0 1.70845e-08 0 0)
(4.92401e-07 1.14912e-07 0 2.70758e-08 0 0)
(6.28028e-11 2.25212e-11 0 1.80372e-10 0 0)
(5.43272e-09 -3.75644e-09 0 2.72422e-09 0 0)
(5.79051e-08 -2.24733e-08 0 8.87064e-09 0 0)
(2.10489e-07 -6.03701e-08 0 1.75528e-08 0 0)
(4.92383e-07 -1.15908e-07 0 2.76408e-08 0 0)
(7.18999e-11 1.10322e-10 0 1.44408e-09 0 0)
(5.58551e-09 -1.15959e-08 0 2.50741e-08 0 0)
(5.7284e-08 -6.76421e-08 0 8.10244e-08 0 0)
(2.07486e-07 -1.81647e-07 0 1.60878e-07 0 0)
(4.84417e-07 -3.48805e-07 0 2.53949e-07 0 0)
(6.71552e-11 1.95826e-10 0 4.12777e-09 0 0)
(5.51385e-09 -1.95833e-08 0 7.20968e-08 0 0)
(5.56224e-08 -1.12971e-07 0 2.32354e-07 0 0)
(2.00783e-07 -3.02924e-07 0 4.61687e-07 0 0)
(4.67475e-07 -5.81057e-07 0 7.29263e-07 0 0)
(5.60921e-11 2.58823e-10 0 8.35161e-09 0 0)
(5.3209e-09 -2.74431e-08 0 1.45853e-07 0 0)
(5.2964e-08 -1.56785e-07 0 4.68955e-07 0 0)
(1.9038e-07 -4.19392e-07 0 9.31602e-07 0 0)
(4.41589e-07 -8.02987e-07 0 1.47174e-06 0 0)
(4.26309e-11 2.94047e-10 0 1.42219e-08 0 0)
(5.05244e-09 -3.49511e-08 0 2.47397e-07 0 0)
(4.94639e-08 -1.97363e-07 0 7.93555e-07 0 0)
(1.76734e-07 -5.26075e-07 0 1.57552e-06 0 0)
(4.07835e-07 -1.0046e-06 0 2.48883e-06 0 0)
(2.91544e-11 2.91606e-10 0 2.18131e-08 0 0)
(4.73939e-09 -4.19236e-08 0 3.76678e-07 0 0)
(4.53429e-08 -2.33172e-07 0 1.20488e-06 0 0)
(1.60644e-07 -6.18506e-07 0 2.39024e-06 0 0)
(3.68212e-07 -1.177e-06 0 3.77519e-06 0 0)
(1.79614e-11 2.39846e-10 0 3.11762e-08 0 0)
(4.40467e-09 -4.82043e-08 0 5.32499e-07 0 0)
(4.08488e-08 -2.63018e-07 0 1.69756e-06 0 0)
(1.43133e-07 -6.93363e-07 0 3.36433e-06 0 0)
(3.25429e-07 -1.31396e-06 0 5.31248e-06 0 0)
(1.11187e-11 1.29389e-10 0 4.2346e-08 0 0)
(4.05878e-09 -5.36191e-08 0 7.12574e-07 0 0)
(3.6203e-08 -2.86046e-07 0 2.26269e-06 0 0)
(1.25261e-07 -7.48857e-07 0 4.47974e-06 0 0)
(2.82408e-07 -1.41304e-06 0 7.07259e-06 0 0)
(9.82912e-12 -4.22029e-11 0 5.53293e-08 0 0)
(3.69375e-09 -5.78881e-08 0 9.13611e-07 0 0)
(3.15504e-08 -3.01562e-07 0 2.88894e-06 0 0)
(1.07909e-07 -7.84638e-07 0 5.71557e-06 0 0)
(2.41668e-07 -1.47564e-06 0 9.02525e-06 0 0)
(1.39173e-11 -2.60061e-10 0 7.00299e-08 0 0)
(3.26667e-09 -6.0371e-08 0 1.1311e-06 0 0)
(2.68501e-08 -3.08198e-07 0 3.56346e-06 0 0)
(9.14286e-08 -8.00134e-07 0 7.05108e-06 0 0)
(2.04786e-07 -1.50509e-06 0 1.11436e-05 0 0)
(2.12511e-11 -4.7693e-10 0 8.60486e-08 0 0)
(2.70256e-09 -5.97656e-08 0 1.35827e-06 0 0)
(2.18463e-08 -3.02646e-07 0 4.27178e-06 0 0)
(7.54701e-08 -7.91957e-07 0 8.47137e-06 0 0)
(1.71928e-07 -1.50319e-06 0 1.34214e-05 0 0)
(2.80379e-11 -6.26369e-10 0 1.02333e-07 0 0)
(1.98013e-09 -5.4509e-08 0 1.58371e-06 0 0)
(1.64403e-08 -2.80236e-07 0 4.9938e-06 0 0)
(5.9607e-08 -7.5334e-07 0 9.96651e-06 0 0)
(1.42482e-07 -1.46817e-06 0 1.58849e-05 0 0)
(3.27275e-11 -6.86961e-10 0 1.16854e-07 0 0)
(1.3188e-09 -4.5518e-08 0 1.7883e-06 0 0)
(1.15956e-08 -2.42263e-07 0 5.69327e-06 0 0)
(4.5084e-08 -6.82583e-07 0 1.15178e-05 0 0)
(1.16907e-07 -1.40067e-06 0 1.86104e-05 0 0)
(3.92535e-11 -6.33394e-10 0 1.28288e-07 0 0)
(1.54641e-09 -4.50103e-08 0 1.95504e-06 0 0)
(1.07573e-08 -2.20936e-07 0 6.30238e-06 0 0)
(3.74037e-08 -6.13672e-07 0 1.30274e-05 0 0)
(1.00361e-07 -1.33233e-06 0 2.16621e-05 0 0)
(3.64529e-10 -5.72882e-09 0 1.6736e-07 0 0)
(8.55273e-09 -1.07778e-07 0 2.30789e-06 0 0)
(2.775e-08 -3.59663e-07 0 7.30102e-06 0 0)
(5.14811e-08 -7.25274e-07 0 1.51338e-05 0 0)
(1.23718e-07 -1.55764e-06 0 2.55039e-05 0 0)
(1.35873e-06 8.7116e-06 0 6.09515e-05 0 0)
(3.17041e-06 1.59438e-05 0 8.53901e-05 0 0)
(5.55808e-06 2.43032e-05 0 0.000111901 0 0)
(8.10809e-06 3.28212e-05 -5.96447e-25 0.000139171 -1.36296e-24 1.69599e-42)
(1.07427e-05 4.12757e-05 0 0.00016559 0 0)
(1.33905e-05 4.93973e-05 0 0.00018983 0 0)
(1.59579e-05 5.68596e-05 6.20034e-23 0.000210698 1.52142e-22 6.51896e-39)
(1.83765e-05 6.33717e-05 -6.85427e-23 0.000227031 -1.67645e-22 6.63416e-39)
(2.05643e-05 6.86408e-05 -5.83816e-25 0.000237724 -1.43168e-24 3.71699e-43)
(2.26343e-05 7.2811e-05 -4.08023e-23 0.000242689 -1.00025e-22 1.39821e-39)
(2.447e-05 7.55005e-05 3.91403e-26 0.000240803 -3.34133e-25 2.95518e-42)
(2.61316e-05 7.65878e-05 1.93876e-25 0.000231268 1.42361e-25 3.48499e-42)
(2.76457e-05 7.62066e-05 2.43261e-23 0.000215342 5.65845e-23 3.31642e-40)
(2.90565e-05 7.44327e-05 2.49683e-23 0.000194132 5.66991e-23 2.68755e-40)
(3.04112e-05 7.13626e-05 6.00462e-23 0.000169212 1.32228e-22 1.19219e-39)
(3.17548e-05 6.7089e-05 -6.18204e-23 0.000142442 -1.31376e-22 1.19237e-39)
(3.31391e-05 6.16996e-05 2.54454e-23 0.000115743 5.17566e-23 1.57259e-40)
(3.46171e-05 5.52638e-05 2.42281e-23 9.08616e-05 4.67659e-23 1.10971e-40)
(3.62455e-05 4.78623e-05 -1.42022e-24 6.92373e-05 -2.64698e-24 3.68898e-42)
(3.8097e-05 3.96063e-05 -1.53205e-24 5.18671e-05 -2.56311e-24 3.19176e-42)
(4.03013e-05 3.06645e-05 -4.94953e-23 3.92275e-05 -7.59145e-23 3.86909e-40)
(4.28593e-05 2.10296e-05 7.60923e-25 3.10299e-05 1.02181e-24 7.67036e-44)
(4.56858e-05 1.09202e-05 -9.24348e-23 2.71731e-05 -1.08362e-22 9.80151e-40)
(4.87732e-05 5.9341e-07 9.40206e-23 2.70671e-05 9.10455e-23 9.62875e-40)
(5.20746e-05 -9.70081e-06 0 2.99148e-05 0 0)
(5.55008e-05 -1.97223e-05 0 3.48479e-05 0 0)
(5.89438e-05 -2.92475e-05 1.44871e-24 4.10282e-05 5.00981e-25 1.53118e-43)
(6.23306e-05 -3.80584e-05 0 4.77072e-05 0 0)
(6.57132e-05 -4.59085e-05 0 5.42085e-05 0 0)
(6.87073e-05 -5.25398e-05 0 5.98367e-05 0 0)
(2.12635e-06 1.19905e-05 0 7.29265e-05 0 0)
(4.16561e-06 1.97246e-05 0 9.90307e-05 0 0)
(6.50985e-06 2.78062e-05 0 0.000124922 0 0)
(8.98593e-06 3.59113e-05 5.94555e-25 0.000150314 1.35338e-24 1.50838e-42)
(1.15675e-05 4.39309e-05 0 0.000174249 0 0)
(1.41732e-05 5.15896e-05 0 0.000195734 0 0)
(1.67223e-05 5.85991e-05 -5.93238e-23 0.00021376 -1.41792e-22 5.63064e-39)
(1.91612e-05 6.47126e-05 6.64397e-23 0.000227343 1.57275e-22 5.89702e-39)
(2.14343e-05 6.97133e-05 5.6179e-25 0.000235638 1.32945e-24 3.27579e-43)
(2.36402e-05 7.37429e-05 0 0.000238782 0 0)
(2.56631e-05 7.63634e-05 0 0.000235362 0 0)
(2.759e-05 7.75908e-05 4.36494e-23 0.000225297 9.86167e-23 1.01947e-39)
(2.93973e-05 7.74579e-05 -4.6005e-23 0.000209658 -1.01217e-22 1.02589e-39)
(3.11154e-05 7.6013e-05 0 0.000189452 0 0)
(3.27644e-05 7.33091e-05 1.68634e-22 0.000166053 3.51581e-22 8.80371e-39)
(3.43621e-05 6.94007e-05 -1.73993e-22 0.000141049 -3.50815e-22 8.79776e-39)
(3.5936e-05 6.43491e-05 0 0.000116064 0 0)
(3.75255e-05 5.82241e-05 -4.95187e-23 9.26047e-05 -9.14905e-23 4.76944e-40)
(3.91831e-05 5.11101e-05 5.06314e-23 7.19089e-05 8.85844e-23 4.81663e-40)
(4.09806e-05 4.31265e-05 0 5.48781e-05 0 0)
(4.2972e-05 3.43881e-05 0 4.19833e-05 0 0)
(4.52322e-05 2.49927e-05 -7.40907e-25 3.31589e-05 -9.99603e-25 6.75009e-44)
(4.7769e-05 1.51471e-05 9.22885e-23 2.83222e-05 1.07344e-22 8.89157e-40)
(5.05251e-05 5.04502e-06 -9.50101e-23 2.7044e-05 -9.31964e-23 9.04132e-40)
(5.34767e-05 -5.07852e-06 0 2.87002e-05 0 0)
(5.65639e-05 -1.49999e-05 0 3.25643e-05 0 0)
(5.96942e-05 -2.45178e-05 -1.37849e-24 3.78961e-05 -6.12261e-25 1.35857e-43)
(6.2774e-05 -3.34536e-05 0 4.40108e-05 0 0)
(6.58416e-05 -4.16472e-05 0 5.03165e-05 0 0)
(6.87806e-05 -4.91548e-05 0 5.64599e-05 0 0)
(2.95831e-06 1.50874e-05 0 8.2286e-05 0 0)
(4.95532e-06 2.24186e-05 0 0.000107222 0 0)
(7.2696e-06 3.01692e-05 0 0.000131533 0 0)
(9.77629e-06 3.80755e-05 -4.03199e-23 0.000155228 -9.12036e-23 6.11538e-39)
(1.24096e-05 4.59136e-05 4.69988e-23 0.000177399 1.06365e-22 6.25993e-39)
(1.5091e-05 5.34027e-05 -5.60423e-23 0.000197069 -1.28354e-22 6.26023e-39)
(1.77667e-05 6.02991e-05 6.29058e-23 0.000213279 1.42343e-22 6.37853e-39)
(2.03958e-05 6.63813e-05 -1.10802e-24 0.000225145 -2.50048e-24 1.47734e-42)
(2.29589e-05 7.15055e-05 0 0.000232034 0 0)
(2.55216e-05 7.57457e-05 0 0.000234076 0 0)
(2.79923e-05 7.86621e-05 1.395e-24 0.000229808 2.95009e-24 1.21349e-42)
(3.04436e-05 8.03083e-05 0 0.000219613 0 0)
(3.28167e-05 8.06346e-05 0 0.000204378 0 0)
(3.51153e-05 7.96465e-05 4.13091e-25 0.000185044 8.0408e-25 5.80313e-44)
(3.73211e-05 7.73464e-05 3.06002e-22 0.000162858 5.78896e-22 2.50679e-38)
(3.94137e-05 7.37498e-05 -3.16988e-22 0.000139229 -5.7935e-22 2.50674e-38)
(4.13856e-05 6.88927e-05 -4.46555e-25 0.000115594 -7.86895e-25 4.08168e-44)
(4.32506e-05 6.28386e-05 0 9.32763e-05 0 0)
(4.50492e-05 5.56828e-05 0 7.33807e-05 0 0)
(4.68497e-05 4.75581e-05 -1.78396e-24 5.67164e-05 -2.67682e-24 4.32538e-43)
(4.87312e-05 3.86211e-05 0 4.37512e-05 0 0)
(5.07615e-05 2.90541e-05 0 3.46477e-05 0 0)
(5.29711e-05 1.90201e-05 1.68643e-24 2.92268e-05 1.8784e-24 2.6938e-43)
(5.53593e-05 8.74053e-06 1.05891e-22 2.71753e-05 1.00359e-22 9.24925e-40)
(5.79144e-05 -1.55426e-06 -1.06702e-22 2.79874e-05 -8.35377e-23 9.07773e-40)
(6.06013e-05 -1.16453e-05 1.05887e-22 3.10424e-05 6.50866e-23 7.63014e-40)
(6.33603e-05 -2.13348e-05 -1.07032e-22 3.56814e-05 -4.77564e-23 7.43827e-40)
(6.61123e-05 -3.0447e-05 0 4.12629e-05 0 0)
(6.88032e-05 -3.88247e-05 0 4.72143e-05 0 0)
(7.0973e-05 -4.66305e-05 0 5.33856e-05 0 0)
(3.78347e-06 1.80196e-05 0 9.10582e-05 0 0)
(5.75206e-06 2.50589e-05 5.91441e-23 0.000114881 1.28667e-22 2.84331e-38)
(8.12713e-06 3.27008e-05 -3.6325e-23 0.000137819 -7.85514e-23 7.51106e-39)
(1.07376e-05 4.054e-05 -8.98373e-23 0.000159909 -1.98304e-22 2.95304e-38)
(1.3502e-05 4.83034e-05 1.05467e-22 0.000180291 2.32438e-22 2.91345e-38)
(1.63686e-05 5.57555e-05 -5.96038e-23 0.000198066 -1.29698e-22 7.07107e-39)
(1.93099e-05 6.26941e-05 0 0.000212377 0 0)
(2.22875e-05 6.89034e-05 -2.33842e-24 0.000222465 -4.88474e-24 6.25663e-42)
(2.53524e-05 7.43604e-05 0 0.000227981 0 0)
(2.84704e-05 7.89354e-05 0 0.000228805 0 0)
(3.1634e-05 8.23098e-05 -5.31839e-23 0.000223746 -1.02682e-22 1.47098e-39)
(3.48536e-05 8.44865e-05 5.40762e-23 0.000213451 1.00189e-22 1.31166e-39)
(3.80515e-05 8.5364e-05 0 0.000198646 0 0)
(4.11912e-05 8.48991e-05 -4.77447e-25 0.000180217 -8.31045e-25 6.39636e-44)
(4.42049e-05 8.30448e-05 4.74779e-22 0.000159282 8.00285e-22 5.03411e-38)
(4.70232e-05 7.97769e-05 -4.93813e-22 0.000137078 -8.02988e-22 5.03392e-38)
(4.95948e-05 7.51064e-05 5.20933e-25 0.000114854 8.18167e-25 4.49887e-44)
(5.19017e-05 6.90884e-05 0 9.37613e-05 0 0)
(5.39678e-05 6.18269e-05 6.65362e-23 7.47709e-05 9.56357e-23 5.31736e-40)
(5.58589e-05 5.34751e-05 -6.2888e-23 5.86164e-05 -8.56172e-23 4.6511e-40)
(5.76704e-05 4.42236e-05 -2.05803e-24 4.5756e-05 -2.59909e-24 4.22956e-43)
(5.94903e-05 3.4278e-05 0 3.63734e-05 0 0)
(6.13795e-05 2.38512e-05 3.9803e-24 3.0406e-05 4.10404e-24 1.27913e-42)
(6.33768e-05 1.31785e-05 0 2.76111e-05 0 0)
(6.54967e-05 2.49728e-06 -1.2016e-22 2.75834e-05 -9.1295e-23 9.29495e-40)
(6.77273e-05 -7.97115e-06 2.34359e-22 2.98031e-05 1.43769e-22 3.35017e-39)
(7.00418e-05 -1.80287e-05 -2.29971e-22 3.36945e-05 -1.06933e-22 2.9648e-39)
(7.24023e-05 -2.74991e-05 -1.11019e-22 3.86724e-05 -3.55204e-23 5.98334e-40)
(7.47115e-05 -3.62275e-05 2.28506e-22 4.4194e-05 4.03281e-23 2.54181e-39)
(7.59192e-05 -4.44866e-05 0 5.02897e-05 0 0)
(4.69373e-06 2.1077e-05 0 9.96145e-05 0 0)
(6.72362e-06 2.80224e-05 -6.61365e-23 0.000122224 -1.44021e-22 3.27035e-38)
(9.23274e-06 3.56476e-05 7.88492e-23 0.000143633 1.70097e-22 3.16119e-38)
(1.20158e-05 4.34691e-05 0 0.000163926 0 0)
(1.50068e-05 5.1235e-05 0 0.000182339 0 0)
(1.81852e-05 5.87553e-05 -2.00055e-24 0.000198069 -4.07957e-24 7.25583e-42)
(2.15427e-05 6.5849e-05 0 0.000210377 0 0)
(2.50512e-05 7.23098e-05 2.62193e-24 0.000218628 5.06022e-24 6.8719e-42)
(2.88018e-05 7.8181e-05 -4.64072e-23 0.000222747 -8.60979e-23 1.60759e-39)
(3.27082e-05 8.31811e-05 5.15152e-23 0.000222296 9.14105e-23 1.63155e-39)
(3.68125e-05 8.70931e-05 5.82523e-23 0.000216547 1.00053e-22 1.50452e-39)
(4.10588e-05 8.98463e-05 -6.14671e-23 0.00020621 -1.00583e-22 1.4264e-39)
(4.53547e-05 9.13145e-05 -2.04598e-24 0.000191927 -3.23095e-24 1.22092e-42)
(4.96095e-05 9.14047e-05 1.0868e-24 0.000174514 1.6584e-24 2.78001e-43)
(5.36952e-05 9.00257e-05 6.83586e-22 0.000154959 1.01303e-21 8.52541e-38)
(5.74816e-05 8.71166e-05 -7.13422e-22 0.000134327 -1.01979e-21 8.52504e-38)
(6.08634e-05 8.26621e-05 -1.21244e-24 0.000113673 -1.67948e-24 1.99909e-43)
(6.37835e-05 7.67044e-05 2.45793e-24 9.39731e-05 3.28357e-24 7.06592e-43)
(6.62457e-05 6.93487e-05 -7.83839e-23 7.60565e-05 -1.00278e-22 5.94793e-40)
(6.8314e-05 6.07613e-05 7.64753e-23 6.05706e-05 9.32773e-23 5.54093e-40)
(7.00976e-05 5.11556e-05 7.92028e-23 4.79498e-05 9.03525e-23 4.82584e-40)
(7.17161e-05 4.07676e-05 -7.66048e-23 3.84046e-05 -8.11831e-23 4.46663e-40)
(7.3272e-05 2.98488e-05 -4.62306e-24 3.19511e-05 -4.44677e-24 1.40486e-42)
(7.48429e-05 1.8658e-05 0 2.84334e-05 0 0)
(7.64763e-05 7.44766e-06 4.4692e-24 2.75468e-05 3.23932e-24 1.11072e-42)
(7.81856e-05 -3.55029e-06 0 2.8874e-05 0 0)
(7.99723e-05 -1.41294e-05 0 3.19288e-05 0 0)
(8.18441e-05 -2.41052e-05 2.61236e-22 3.6195e-05 9.06596e-23 2.96647e-39)
(8.37012e-05 -3.33242e-05 -2.52687e-22 4.11673e-05 -5.55452e-23 2.70915e-39)
(8.38263e-05 -4.22514e-05 0 4.70425e-05 0 0)
(5.79508e-06 2.44414e-05 -5.7865e-23 0.000107671 -1.15527e-22 3.21925e-38)
(7.98858e-06 3.14328e-05 1.07255e-22 0.000128749 2.29039e-22 7.9313e-38)
(1.07119e-05 3.90943e-05 -4.28791e-23 0.000148396 -8.93584e-23 8.55236e-39)
(1.37624e-05 4.69559e-05 0 0.000166708 0 0)
(1.71021e-05 5.48037e-05 -6.11181e-23 0.000183019 -1.20219e-22 8.07848e-39)
(2.07383e-05 6.24752e-05 6.87456e-23 0.000196616 1.29107e-22 7.77264e-39)
(2.46795e-05 6.97987e-05 -7.91192e-23 0.000206875 -1.43219e-22 7.16731e-39)
(2.89147e-05 7.65856e-05 9.23341e-23 0.000213307 1.5799e-22 7.7897e-39)
(3.3564e-05 8.29067e-05 0 0.000216019 0 0)
(3.85101e-05 8.8365e-05 3.6028e-24 0.000214333 5.61902e-24 6.65764e-42)
(4.38174e-05 9.28278e-05 -6.42508e-23 0.000208019 -9.66125e-23 1.53936e-39)
(4.93734e-05 9.61607e-05 3.52366e-23 0.000197744 4.97465e-23 4.22983e-40)
(5.5059e-05 9.82185e-05 4.8631e-24 0.000184101 6.22353e-24 1.02925e-41)
(6.07187e-05 9.88659e-05 3.92746e-23 0.00016783 5.20692e-23 3.08737e-40)
(6.61528e-05 9.79755e-05 9.38561e-22 0.000149786 1.21472e-21 1.30646e-37)
(7.11585e-05 9.54536e-05 -9.82007e-22 0.000130863 -1.22783e-21 1.30634e-37)
(7.55665e-05 9.12582e-05 4.67789e-23 0.000111932 5.69752e-23 2.26954e-40)
(7.92729e-05 8.54136e-05 -6.20296e-24 9.37884e-05 -7.32328e-24 6.99674e-42)
(8.22578e-05 7.80174e-05 4.57328e-23 7.71183e-05 5.18304e-23 1.46153e-40)
(8.45844e-05 6.9239e-05 -9.30318e-23 6.24738e-05 -1.01415e-22 6.55832e-40)
(8.638e-05 5.93052e-05 -5.73211e-24 5.02529e-05 -5.89728e-24 2.12371e-42)
(8.78008e-05 4.84781e-05 0 4.06869e-05 0 0)
(8.89969e-05 3.70383e-05 1.74239e-22 3.38499e-05 1.53586e-22 1.55858e-39)
(9.00925e-05 2.52702e-05 -1.77891e-22 2.96689e-05 -1.41795e-22 1.62329e-39)
(9.11749e-05 1.3447e-05 1.70467e-22 2.79381e-05 1.18494e-22 1.284e-39)
(9.22889e-05 1.81688e-06 -1.63314e-22 2.8342e-05 -9.68932e-23 1.17569e-39)
(9.34638e-05 -9.39782e-06 -9.93507e-24 3.04889e-05 -4.72939e-24 3.91952e-42)
(9.47505e-05 -1.99947e-05 -1.51672e-22 3.39405e-05 -5.60567e-23 8.39435e-40)
(9.60649e-05 -2.98119e-05 4.40346e-22 3.82404e-05 1.11831e-22 6.71235e-39)
(9.49812e-05 -3.95869e-05 -3.07263e-22 4.37011e-05 -4.00489e-23 3.23374e-39)
(7.20152e-06 2.82316e-05 3.07506e-23 0.000114851 6.04296e-23 8.15941e-39)
(9.67549e-06 3.53759e-05 -4.09294e-23 0.000134072 -8.34574e-23 1.04168e-38)
(1.27158e-05 4.3128e-05 -5.01706e-23 0.000151767 -9.86803e-23 1.01216e-38)
(1.61557e-05 5.10884e-05 6.02595e-23 0.000167967 1.1259e-22 1.03967e-38)
(1.99903e-05 5.90779e-05 -6.74199e-23 0.000182078 -1.20523e-22 8.74511e-39)
(2.42522e-05 6.69487e-05 8.36641e-23 0.00019349 1.40719e-22 1.01104e-38)
(2.8965e-05 7.4532e-05 2.75537e-24 0.000201693 4.29939e-24 8.2262e-42)
(3.41566e-05 8.16823e-05 0 0.000206369 0 0)
(3.99381e-05 8.84278e-05 -5.88167e-23 0.000207676 -8.43951e-23 1.90021e-39)
(4.62003e-05 9.43292e-05 -4.14039e-24 0.000204863 -6.66563e-24 1.61588e-42)
(5.29947e-05 9.93083e-05 -4.51385e-24 0.000198127 -6.94341e-24 1.31893e-42)
(6.01636e-05 0.000103186 8.3063e-23 0.000188044 1.0224e-22 1.80479e-39)
(6.75459e-05 0.000105801 4.08595e-23 0.000175167 4.90087e-23 3.13667e-40)
(7.49104e-05 0.000106988 -7.01335e-23 0.00016016 -8.08847e-23 7.8415e-40)
(8.19742e-05 0.000106591 1.26578e-21 0.000143748 1.42746e-21 1.94516e-37)
(8.84507e-05 0.000104489 -1.27488e-21 0.000126659 -1.39355e-21 1.79676e-37)
(9.40973e-05 0.000100611 -7.95971e-23 0.000109582 -8.51881e-23 5.49803e-40)
(9.87575e-05 9.49596e-05 6.10469e-23 9.31414e-05 6.3625e-23 2.94177e-40)
(0.000102385 8.76149e-05 1.08513e-22 7.78802e-05 1.0965e-22 7.35297e-40)
(0.000105043 7.87386e-05 5.77478e-24 6.42505e-05 5.23482e-24 9.32317e-43)
(0.000106884 6.85608e-05 5.55099e-24 5.26028e-05 4.67226e-24 8.7085e-43)
(0.000108103 5.73582e-05 -1.0634e-22 4.31742e-05 -9.36291e-23 5.59089e-40)
(0.000108905 4.5433e-05 0 3.60836e-05 0 0)
(0.000109468 3.30933e-05 -6.42039e-24 3.13322e-05 -4.71169e-24 1.64063e-42)
(0.000109927 2.06344e-05 1.82066e-22 2.88062e-05 1.20469e-22 1.19076e-39)
(0.000110364 8.32418e-06 -1.91256e-22 2.82879e-05 -1.10549e-22 1.32487e-39)
(0.000110842 -3.59553e-06 1.82058e-22 2.94835e-05 8.80854e-23 1.0609e-39)
(0.000111451 -1.48946e-05 -1.68391e-22 3.20364e-05 -6.54721e-23 9.09749e-40)
(0.000112134 -2.53941e-05 -1.63128e-22 3.55518e-05 -4.63113e-23 7.49704e-40)
(0.000109726 -3.6172e-05 1.82895e-22 4.0393e-05 3.20841e-23 9.64883e-40)
(9.0536e-06 3.25436e-05 0 0.000120795 0 0)
(1.19453e-05 3.99199e-05 -4.00596e-23 0.000137896 -7.58635e-23 8.52956e-39)
(1.54283e-05 4.78042e-05 5.89257e-23 0.000153498 1.05112e-22 1.26742e-38)
(1.94048e-05 5.59015e-05 -6.7194e-23 0.000167486 -1.13381e-22 1.08748e-38)
(2.39046e-05 6.40582e-05 7.50121e-23 0.000179332 1.17838e-22 9.89452e-39)
(2.89851e-05 7.21353e-05 -8.27206e-23 0.000188537 -1.22629e-22 8.14428e-39)
(3.46823e-05 7.99614e-05 9.55297e-23 0.000194711 1.31055e-22 8.3635e-39)
(4.11011e-05 8.74779e-05 7.24167e-24 0.000197735 9.30296e-24 3.4898e-41)
(4.82651e-05 9.45589e-05 4.12789e-24 0.00019765 5.0173e-24 8.36313e-42)
(5.61449e-05 0.000100851 4.65577e-24 0.000193884 5.37453e-24 7.94524e-42)
(6.47306e-05 0.000106275 5.26773e-24 0.000186884 5.85215e-24 7.50081e-42)
(7.38316e-05 0.000110633 -2.8959e-24 0.000177134 -3.08681e-24 1.74636e-42)
(8.32262e-05 0.000113754 5.31341e-23 0.000165156 5.49541e-23 4.44688e-40)
(9.25968e-05 0.000115455 -2.69037e-23 0.000151533 -2.64823e-23 1.08562e-40)
(0.000101566 0.00011556 1.56561e-21 0.000136863 1.54002e-21 2.44986e-37)
(0.000109755 0.000113922 -1.70163e-21 0.000121715 -1.63024e-21 2.63127e-37)
(0.000116839 0.000110443 -3.05859e-23 0.000106607 -2.90054e-23 5.77085e-41)
(0.000122606 0.000105095 5.51266e-23 9.20001e-05 5.09956e-23 1.98927e-40)
(0.000126981 9.7932e-05 -3.97115e-24 7.82969e-05 -3.58872e-24 8.41721e-43)
(0.000130032 8.90967e-05 -1.58621e-23 6.58482e-05 -1.3919e-23 1.18466e-41)
(0.000131938 7.881e-05 -7.88702e-24 5.49486e-05 -6.6525e-24 2.61632e-42)
(0.000132943 6.7352e-05 -7.76963e-24 4.58263e-05 -6.23353e-24 2.30317e-42)
(0.00013331 5.50376e-05 -1.52192e-23 3.86323e-05 -1.14564e-23 8.11137e-42)
(0.000133277 4.21935e-05 2.49039e-22 3.34298e-05 1.73352e-22 1.95174e-39)
(0.000133035 2.91359e-05 -2.44913e-22 3.01876e-05 -1.55429e-22 1.89652e-39)
(0.000132708 1.61536e-05 2.20292e-22 2.87814e-05 1.23195e-22 1.34601e-39)
(0.000132401 3.51024e-06 -2.02872e-22 2.90121e-05 -9.81769e-23 1.15483e-39)
(0.000132247 -8.53226e-06 1.801e-22 3.06096e-05 7.21238e-23 8.05586e-40)
(0.000132212 -1.97682e-05 -2.14788e-22 3.32482e-05 -6.84137e-23 1.15355e-39)
(0.000128383 -3.1671e-05 0 3.72782e-05 0 0)
(1.15259e-05 3.74387e-05 0 0.000125171 0 0)
(1.49973e-05 4.50892e-05 -2.94849e-24 0.000139941 -4.94076e-24 4.17785e-41)
(1.9073e-05 5.31215e-05 5.13976e-23 0.000153351 8.13053e-23 8.02264e-39)
(2.37576e-05 6.13577e-05 6.36921e-26 0.000165057 7.0756e-25 4.38912e-42)
(2.91187e-05 6.9666e-05 -8.4128e-23 0.000174615 -1.13756e-22 1.07475e-38)
(3.52381e-05 7.79125e-05 -6.25457e-24 0.000181637 -7.93989e-24 4.0503e-41)
(4.21693e-05 8.59299e-05 -7.09108e-24 0.000185852 -8.20353e-24 3.93782e-41)
(5.0087e-05 9.37369e-05 5.77333e-23 0.000187344 6.35465e-23 1.8037e-39)
(5.89292e-05 0.00010105 -8.01847e-23 0.000185954 -8.23818e-23 2.7235e-39)
(6.87441e-05 0.000107646 -8.5859e-26 0.000181451 -1.45185e-25 1.80326e-46)
(7.94404e-05 0.000113412 4.75292e-23 0.000174344 4.5065e-23 5.03939e-40)
(9.07991e-05 0.000118168 -5.23056e-23 0.000165079 -4.71215e-23 5.10007e-40)
(0.00010252 0.000121737 2.49351e-23 0.000154135 2.22393e-23 8.19887e-41)
(0.000114189 0.000123929 -3.06345e-23 0.00014201 -2.64082e-23 1.08479e-40)
(0.000125324 0.000124556 1.99577e-21 0.000129177 1.71507e-21 3.34627e-37)
(0.000135444 0.000123447 -2.09335e-21 0.000116059 -1.76353e-21 3.34631e-37)
(0.000144141 0.000120474 -3.53055e-23 0.000103014 -2.95799e-23 7.12829e-41)
(0.000151142 0.000115571 4.07382e-23 9.03497e-05 3.36377e-23 8.9113e-41)
(0.000156347 0.000108757 -6.84754e-23 7.83359e-05 -5.5601e-23 1.96226e-40)
(0.000159831 0.000100143 9.18857e-23 6.72221e-05 7.31619e-23 3.42013e-40)
(0.000161805 8.99283e-05 -6.54086e-26 5.72403e-05 -3.19364e-26 1.05883e-46)
(0.000162569 7.83841e-05 -1.43073e-22 4.85984e-05 -1.0565e-22 6.16147e-40)
(0.00016245 6.58292e-05 1.58792e-22 4.14654e-05 1.12043e-22 7.58796e-40)
(0.000161753 5.26028e-05 1.726e-23 3.59537e-05 1.13009e-23 7.92208e-42)
(0.000160727 3.90394e-05 1.65302e-23 3.21034e-05 1.00483e-23 6.88896e-42)
(0.00015955 2.54468e-05 -2.56328e-22 2.98759e-05 -1.39463e-22 1.49982e-39)
(0.000158369 1.21141e-05 3.47575e-24 2.91604e-05 2.22505e-24 5.02505e-42)
(0.000157369 -6.65619e-07 2.72317e-22 2.97771e-05 1.12491e-22 1.61864e-39)
(0.000156537 -1.26558e-05 0 3.14743e-05 0 0)
(0.000151221 -2.57566e-05 0 3.45291e-05 0 0)
(1.48351e-05 4.29282e-05 0 0.000127666 0 0)
(1.90751e-05 5.08472e-05 5.73411e-23 0.000139952 8.45253e-23 1.28892e-38)
(2.39159e-05 5.90032e-05 1.54592e-25 0.000151107 7.71313e-25 4.05916e-42)
(2.95038e-05 6.73371e-05 2.82601e-26 0.000160513 6.62733e-25 4.87753e-42)
(3.59491e-05 7.57382e-05 -1.83256e-22 0.000167809 -2.08327e-22 4.29604e-38)
(4.33547e-05 8.40749e-05 1.11175e-22 0.000172727 1.15766e-22 1.15279e-38)
(5.18025e-05 9.22001e-05 8.14645e-24 0.000175121 7.97242e-24 4.30163e-41)
(6.14957e-05 0.000100157 0 0.0001752 0 0)
(7.2342e-05 0.000107581 -7.98423e-23 0.000172673 -6.94879e-23 2.17458e-39)
(8.44143e-05 0.000114356 8.97712e-23 0.000167649 7.3011e-23 2.22569e-39)
(9.75507e-05 0.000120354 -5.36318e-23 0.000160618 -4.29653e-23 5.53009e-40)
(0.000111489 0.000125419 -2.00894e-25 0.000151996 -1.02341e-24 1.15515e-42)
(0.000125838 0.000129382 6.42797e-23 0.000142214 4.84477e-23 5.19407e-40)
(0.000140075 0.000132055 -2.15937e-24 0.000131686 -1.6231e-24 4.44198e-43)
(0.000153608 0.000133242 2.44222e-21 0.000120767 1.83893e-21 4.27808e-37)
(0.000165847 0.000132752 -2.56166e-21 0.000109744 -1.90593e-21 4.28199e-37)
(0.000176295 0.000130421 2.51331e-24 9.88296e-05 1.87232e-24 3.22994e-43)
(0.000184623 0.000126139 8.2444e-23 8.81918e-05 6.11658e-23 2.78048e-40)
(0.000190709 0.000119877 -1.67484e-25 7.79768e-05 -2.42391e-25 1.17357e-42)
(0.000194636 0.0001117 -1.05167e-22 6.83346e-05 -7.63547e-23 3.75501e-40)
(0.000196659 0.000101777 1.77216e-22 5.94307e-05 1.25318e-22 8.70358e-40)
(0.000197137 9.03584e-05 -1.65737e-22 5.14426e-05 -1.14226e-22 7.54661e-40)
(0.000196468 7.77568e-05 0 4.45442e-05 0 0)
(0.000195028 6.43177e-05 -1.96444e-23 3.88833e-05 -1.22738e-23 8.65434e-42)
(0.000193135 5.03897e-05 3.05858e-22 3.45588e-05 1.76857e-22 1.87664e-39)
(0.000191018 3.62988e-05 -6.14274e-22 3.16069e-05 -3.26663e-22 7.40289e-39)
(0.000188878 2.23599e-05 3.6383e-24 2.99994e-05 2.44103e-24 5.53901e-42)
(0.000186952 8.89771e-06 -1.40484e-23 2.96439e-05 -5.29985e-24 2.56042e-42)
(0.000185246 -3.82183e-06 2.69838e-22 3.03682e-05 9.71822e-23 1.25595e-39)
(0.000178415 -1.81331e-05 0 3.23239e-05 0 0)
(1.92432e-05 4.8954e-05 6.09279e-24 0.000128004 7.9243e-24 2.05121e-40)
(2.44663e-05 5.7078e-05 0 0.000137725 0 0)
(3.02679e-05 6.529e-05 4.70703e-24 0.000146608 5.30705e-24 4.92632e-41)
(3.69783e-05 7.36374e-05 -8.3592e-23 0.000153748 -8.49892e-23 1.08218e-38)
(4.47526e-05 8.20263e-05 1.05649e-22 0.000158869 9.6701e-23 1.2744e-38)
(5.37092e-05 9.03267e-05 -1.24577e-22 0.000161818 -1.0635e-22 1.1999e-38)
(6.39874e-05 9.84469e-05 1.44147e-22 0.000162587 1.12151e-22 1.23335e-38)
(7.57432e-05 0.00010637 8.33212e-23 0.000161385 6.22759e-23 2.83346e-39)
(8.89283e-05 0.000113761 -2.01953e-22 0.000157949 -1.42595e-22 1.2684e-38)
(0.00010358 0.000120574 -7.1687e-24 0.000152635 -6.60009e-24 2.50282e-42)
(0.00011948 0.000126688 1.11914e-22 0.00014587 7.34253e-23 2.31444e-39)
(0.000136302 0.000131977 -6.62164e-23 0.000138047 -4.389e-23 5.65481e-40)
(0.000153555 0.000136292 3.56992e-23 0.000129543 2.26095e-23 1.56123e-40)
(0.000170599 0.000139457 6.06249e-23 0.00012069 3.95468e-23 3.09581e-40)
(0.000186721 0.000141272 2.90761e-21 0.000111736 1.92436e-21 5.27137e-37)
(0.000201221 0.000141523 -3.08779e-21 0.000102843 -2.03814e-21 5.41785e-37)
(0.000213516 0.000140004 6.51218e-23 9.4098e-05 4.34741e-23 1.83905e-40)
(0.00022322 0.00013655 4.66813e-23 8.55436e-05 3.12958e-23 6.77702e-41)
(0.000230194 0.000131073 -9.46477e-23 7.72119e-05 -6.34359e-23 3.0143e-40)
(0.000234542 0.000123586 2.1429e-22 6.91582e-05 1.42238e-22 1.21298e-39)
(0.000236564 0.000114208 1.14055e-23 6.14788e-05 6.69066e-24 1.49267e-42)
(0.000236686 0.000103162 -3.52661e-22 5.43127e-05 -2.26006e-22 2.75706e-39)
(0.000235384 9.0745e-05 1.85413e-22 4.78261e-05 1.15357e-22 7.27729e-40)
(0.000233113 7.73026e-05 3.60089e-22 4.21885e-05 2.12437e-22 2.33026e-39)
(0.00023026 6.31928e-05 -3.5309e-22 3.75449e-05 -1.98037e-22 2.26614e-39)
(0.000227116 4.87588e-05 3.38881e-22 3.3994e-05 1.75531e-22 1.82358e-39)
(0.000223934 3.43396e-05 -3.52101e-22 3.15833e-05 -1.67626e-22 1.9883e-39)
(0.000221005 2.02936e-05 2.00577e-23 3.03005e-05 8.47976e-24 5.82355e-42)
(0.000218355 6.91265e-06 0 3.0053e-05 0 0)
(0.000210018 -8.55505e-06 -3.93506e-23 3.08334e-05 -1.15512e-23 1.97621e-41)
(2.50602e-05 5.53731e-05 -7.07169e-24 0.000125967 -7.86172e-24 2.21834e-40)
(3.1505e-05 6.35786e-05 7.21078e-23 0.000133121 7.08903e-23 1.52173e-38)
(3.84828e-05 7.17332e-05 -8.28399e-23 0.000139774 -7.24012e-23 1.39905e-38)
(4.65538e-05 7.99643e-05 -6.29037e-24 0.000144742 -5.08434e-24 5.34526e-41)