/*--------------------------------*- C++ -*----------------------------------*\
  =========                 |
  \\      /  F ield         | OpenFOAM: The Open Source CFD Toolbox
   \\    /   O peration     | Website:  https://openfoam.org
    \\  /    A nd           | Version:  12
     \\/     M anipulation  |
\*---------------------------------------------------------------------------*/
FoamFile
{
    format      ascii;
    class       volVectorField;
    location    "0";
    object      wallShearStress;
}
// * * * * * * * * * * * * * * * * * * * * * * * * * * * * * * * * * * * * * //

dimensions      [0 2 -2 0 0 0 0];

internalField   uniform (0 0 0);

boundaryField
{
    inlet
    {
        type            calculated;
        value           uniform (0 0 0);
    }
    outlet
    {
        type            calculated;
        value           uniform (0 0 0);
    }
    pipe-0
    {
        type            calculated;
        value           nonuniform List<vector> 
76
(
(-0.114077 -0.0155807 0)
(-0.114391 -0.0156226 1.35868e-20)
(-0.12695 -0.0167865 0)
(-0.126641 -0.0167459 0)
(-0.126641 0.0167459 0)
(-0.114391 0.0156226 -1.35868e-20)
(-0.108944 -0.0117218 4.767e-21)
(-0.136913 -0.00918969 8.6332e-21)
(-0.136881 -0.00917818 0)
(-0.138825 -0.003189 1.3739e-21)
(-0.139155 -0.00320239 5.06492e-21)
(-0.139185 -0.00320727 2.58073e-21)
(-0.13911 0.00320137 5.0633e-21)
(-0.1393 0.00320673 -7.03593e-21)
(-0.136775 0.00917181 0)
(-0.136517 0.00915227 0)
(-0.13259 -0.0139163 -1.42378e-20)
(-0.128422 0.0162068 0)
(-0.132357 0.0138938 0)
(-0.132357 -0.0138938 -0)
(-0.114308 -0.0156112 -1.53183e-20)
(-0.105622 -0.00628773 0)
(-0.109277 -0.0117592 -8.80571e-21)
(-0.105821 -0.00630098 0)
(-0.10466 0 0)
(-0.105677 0.00629131 -6.90376e-22)
(-0.109254 0.0117557 0)
(-0.109029 0.0117323 -3.90297e-21)
(-0.120411 0.0173569 0)
(-0.126784 0.0167642 -2.27374e-20)
(-0.136819 0.00917695 0)
(-0.132589 0.0139162 1.42377e-20)
(-0.136881 0.00918076 1.06435e-20)
(-0.139091 0.00320305 0)
(-0.139112 -0.00320354 -0)
(-0.136884 -0.00917494 -0)
(-0.136942 0.00919162 -8.63501e-21)
(-0.12695 0.0167865 0)
(-0.13682 -0.00917704 -0)
(-0.114077 0.0155807 0)
(-0.126784 -0.0167642 2.27374e-20)
(-0.109277 0.0117592 0)
(-0.105622 0.00628773 0)
(-0.105821 0.00630098 0)
(-0.10466 0 0)
(-0.105677 -0.00629131 -0)
(-0.109254 -0.0117557 -0)
(-0.109029 -0.0117323 3.90297e-21)
(-0.105736 -0.00629475 0)
(-0.104584 0 0)
(-0.10582 0.00630087 0)
(-0.105654 0.00629044 0)
(-0.120449 -0.0173623 0)
(-0.120446 -0.0173621 -2.22058e-20)
(-0.114037 0.0155744 0)
(-0.114308 0.0156112 1.53183e-20)
(-0.1188 0.0171301 1.85194e-20)
(-0.132482 -0.0139049 0)
(-0.132609 -0.0139187 0)
(-0.136643 0.00916617 -4.40306e-21)
(-0.139266 0.00320443 0)
(-0.139287 -0.00320631 -0)
(-0.136637 -0.00916637 -0)
(-0.132472 0.0139038 0)
(-0.132607 0.0139185 0)
(-0.128422 -0.0162068 -0)
(-0.120446 0.0173621 2.22058e-20)
(-0.120449 0.0173623 0)
(-0.108944 0.0117218 -4.767e-21)
(-0.120411 -0.0173569 -0)
(-0.1188 -0.0171301 -1.85194e-20)
(-0.114037 -0.0155744 -0)
(-0.105736 0.00629475 0)
(-0.104584 0 0)
(-0.10582 -0.00630087 -0)
(-0.105654 -0.00629044 -0)
)
;
    }
    pipe-1
    {
        type            calculated;
        value           nonuniform List<vector> 
78
(
(-0.139341 0.00320853 -3.43787e-21)
(-0.136936 0.00918729 0)
(-0.139719 -0.00321436 -0)
(-0.13689 -0.00918154 -0)
(-0.136798 0.00917403 0)
(-0.114381 -0.0156219 -1.38575e-20)
(-0.109282 0.0117608 0)
(-0.113996 -0.0155694 4.56207e-21)
(-0.109282 -0.0117608 0)
(-0.108987 0.0117294 0)
(-0.126845 -0.0167731 0)
(-0.114381 0.0156219 1.38575e-20)
(-0.136798 -0.00917403 0)
(-0.139341 -0.00320853 3.43787e-21)
(-0.136936 -0.00918729 0)
(-0.13689 0.00918154 0)
(-0.139719 0.00321436 0)
(-0.139765 0.00321655 0)
(-0.136744 0.00916985 0)
(-0.138941 -0.00320138 -0)
(-0.132608 0.0139176 0)
(-0.12683 0.0167699 0)
(-0.120231 0.0173308 -9.06175e-21)
(-0.1204 0.0173554 0)
(-0.118381 0.0170438 0)
(-0.114277 0.0156076 0)
(-0.114136 -0.0155881 -5.98893e-21)
(-0.120442 -0.0173615 2.12915e-20)
(-0.120231 -0.0173308 9.06175e-21)
(-0.1204 -0.0173554 0)
(-0.118381 -0.0170438 0)
(-0.114277 -0.0156076 0)
(-0.114136 0.0155881 5.98893e-21)
(-0.13264 0.0139233 0)
(-0.136935 0.00918338 0)
(-0.136744 -0.00916985 0)
(-0.138941 0.00320138 0)
(-0.120452 -0.0173629 -1.18893e-20)
(-0.139602 -0.00321341 -0)
(-0.139602 0.00321341 0)
(-0.126845 0.0167731 0)
(-0.126986 -0.0167914 -1.9691e-20)
(-0.12664 -0.0167456 -0)
(-0.113996 0.0155694 -4.56207e-21)
(-0.108987 -0.0117294 -0)
(-0.105812 0.00629866 9.64124e-22)
(-0.105647 0.00629335 0)
(-0.105769 -0.00629455 9.3815e-22)
(-0.105816 -0.00630189 -0)
(-0.105812 -0.00629866 -9.64124e-22)
(-0.105647 -0.00629335 0)
(-0.105769 0.00629455 -9.3815e-22)
(-0.105816 0.00630189 0)
(-0.126986 0.0167914 1.9691e-20)
(-0.120452 0.0173629 1.18893e-20)
(-0.12683 -0.0167699 0)
(-0.12664 0.0167456 0)
(-0.139765 -0.00321655 0)
(-0.136935 -0.00918338 -0)
(-0.132512 0.0139113 0)
(-0.132487 -0.0139059 -0)
(-0.13264 -0.0139233 -0)
(-0.108988 0.0117282 0)
(-0.105702 0.00628967 1.03289e-21)
(-0.104693 0 0)
(-0.104536 0 0)
(-0.105576 -0.00628497 -0)
(-0.109304 -0.0117623 8.42383e-21)
(-0.108988 -0.0117282 0)
(-0.105702 -0.00628967 -1.03289e-21)
(-0.104693 0 0)
(-0.104536 0 0)
(-0.105576 0.00628497 -9.09837e-22)
(-0.109304 0.0117623 0)
(-0.120442 0.0173615 -2.12915e-20)
(-0.132512 -0.0139113 0)
(-0.132608 -0.0139176 0)
(-0.132487 0.0139059 0)
)
;
    }
    pipe-2
    {
        type            calculated;
        value           nonuniform List<vector> 
78
(
(-0.109235 -0.011754 -5.16683e-21)
(-0.11404 -0.0155754 -7.57419e-21)
(-0.114353 0.0156175 -1.49975e-20)
(-0.114052 0.0155775 -4.36794e-21)
(-0.126621 0.0167434 1.06129e-20)
(-0.136589 -0.00915957 0)
(-0.126538 -0.0167319 0)
(-0.126862 0.0167751 -1.33616e-20)
(-0.137018 -0.00919053 -2.3072e-20)
(-0.137018 0.00919053 2.3072e-20)
(-0.136589 0.00915957 0)
(-0.126538 0.0167319 0)
(-0.126862 -0.0167751 1.33616e-20)
(-0.11404 0.0155754 7.57419e-21)
(-0.114353 -0.0156175 1.49975e-20)
(-0.126621 -0.0167434 -1.06129e-20)
(-0.114052 -0.0155775 4.36794e-21)
(-0.108952 -0.0117256 1.88115e-21)
(-0.114016 0.0155714 3.34208e-21)
(-0.120406 -0.0173561 -1.88966e-20)
(-0.126837 -0.0167723 0)
(-0.114414 -0.0156259 0)
(-0.120444 0.0173617 -1.78957e-20)
(-0.132382 -0.0138943 0)
(-0.132661 -0.0139261 2.41308e-20)
(-0.132382 0.0138943 0)
(-0.126837 0.0167723 0)
(-0.114414 0.0156259 0)
(-0.122554 -0.0174193 -0)
(-0.120444 -0.0173617 1.78957e-20)
(-0.108945 -0.0117218 0)
(-0.104519 0 0)
(-0.104622 0 0)
(-0.105759 0.00629604 -1.66815e-21)
(-0.108925 0.0117213 0)
(-0.109281 0.011759 8.13786e-21)
(-0.136621 0.00916304 0)
(-0.13911 -0.00320346 5.25762e-21)
(-0.137016 0.00918986 0)
(-0.139109 0.00320346 5.25762e-21)
(-0.137016 -0.00918986 1.17446e-20)
(-0.136621 -0.00916304 -0)
(-0.109235 0.011754 5.16683e-21)
(-0.108945 0.0117218 0)
(-0.104519 0 0)
(-0.104622 0 0)
(-0.105759 -0.00629604 1.66815e-21)
(-0.109281 -0.011759 -8.13786e-21)
(-0.108925 -0.0117213 -0)
(-0.105798 -0.00629836 0)
(-0.105803 -0.0062996 1.54237e-21)
(-0.104483 0 0)
(-0.105836 0.00630151 0)
(-0.122142 -0.0174282 -2.12944e-20)
(-0.122554 0.0174193 0)
(-0.132368 0.0138915 -1.03614e-20)
(-0.132701 0.013931 -2.33387e-20)
(-0.138924 -0.00319219 0)
(-0.139233 -0.00320638 0)
(-0.138924 0.00319976 0)
(-0.13913 0.00319964 0)
(-0.139283 0.00320752 -2.70183e-21)
(-0.139233 0.00320638 0)
(-0.138924 0.00319219 0)
(-0.13913 -0.00319964 -0)
(-0.139283 -0.00320752 2.70183e-21)
(-0.138924 -0.00319976 -0)
(-0.132661 0.0139261 0)
(-0.132368 -0.0138915 1.03614e-20)
(-0.132701 -0.013931 -0)
(-0.122142 0.0174282 2.12944e-20)
(-0.120406 0.0173561 1.88966e-20)
(-0.108952 0.0117256 -1.88115e-21)
(-0.114016 -0.0155714 -3.34208e-21)
(-0.105798 0.00629836 0)
(-0.105803 0.0062996 -1.54237e-21)
(-0.104483 0 0)
(-0.105836 -0.00630151 -0)
)
;
    }
    pipe-5
    {
        type            calculated;
        value           nonuniform List<vector> 
78
(
(-0.137054 0.00919117 0)
(-0.1366 0.00916015 6.57563e-21)
(-0.126543 0.0167327 0)
(-0.126865 -0.0167756 1.3362e-20)
(-0.114053 0.0155785 7.57567e-21)
(-0.114354 -0.015618 -0)
(-0.126627 -0.0167429 -1.06125e-20)
(-0.114055 -0.0155768 4.36627e-21)
(-0.109219 -0.0117523 0)
(-0.114053 -0.0155785 -7.57567e-21)
(-0.114354 0.015618 0)
(-0.114055 0.0155768 -4.36627e-21)
(-0.126627 0.0167429 1.06125e-20)
(-0.1366 -0.00916015 -6.57563e-21)
(-0.126543 -0.0167327 0)
(-0.126865 0.0167756 -1.3362e-20)
(-0.137054 -0.00919117 0)
(-0.137047 -0.00919154 -1.17467e-20)
(-0.132391 0.0138954 0)
(-0.13267 0.0139266 0)
(-0.11443 0.0156276 0)
(-0.122572 -0.0174218 -0)
(-0.10895 -0.0117254 1.88112e-21)
(-0.109295 0.0117626 0)
(-0.114003 0.0155669 0)
(-0.120423 -0.0173587 0)
(-0.126859 -0.0167748 0)
(-0.11443 -0.0156276 0)
(-0.132391 -0.0138954 0)
(-0.13267 -0.0139266 0)
(-0.137047 0.00919154 1.17467e-20)
(-0.139699 0.00321566 0)
(-0.136625 -0.00916309 -0)
(-0.109219 0.0117523 0)
(-0.108938 0.011724 -3.46351e-21)
(-0.104523 0 0)
(-0.104629 0 0)
(-0.10575 -0.00629501 -0)
(-0.109295 -0.0117626 -8.14121e-21)
(-0.108921 -0.0117196 2.89985e-21)
(-0.108938 -0.011724 3.46351e-21)
(-0.104523 0 0)
(-0.104629 0 0)
(-0.10575 0.00629501 0)
(-0.108921 0.0117196 0)
(-0.136625 0.00916309 0)
(-0.139699 -0.00321566 0)
(-0.139637 0.00321428 0)
(-0.139013 0.00319931 -2.34279e-21)
(-0.139672 -0.00321556 -0)
(-0.139644 -0.00321185 -0)
(-0.138996 -0.00320243 -2.29947e-21)
(-0.126859 0.0167748 0)
(-0.132367 -0.0138926 -0)
(-0.132705 -0.0139316 -0)
(-0.122177 0.0174331 0)
(-0.120423 0.0173587 0)
(-0.10895 0.0117254 0)
(-0.114003 -0.0155669 -0)
(-0.120449 -0.0173626 -0)
(-0.105789 0.00629782 -1.52145e-21)
(-0.105802 0.00629867 -1.54214e-21)
(-0.104487 0 0)
(-0.10583 -0.00630076 1.41607e-21)
(-0.105789 -0.00629782 0)
(-0.105802 -0.00629867 0)
(-0.104487 0 0)
(-0.10583 0.00630076 -1.41607e-21)
(-0.122177 -0.0174331 0)
(-0.120449 0.0173626 0)
(-0.122572 0.0174218 0)
(-0.132367 0.0138926 0)
(-0.132705 0.0139316 0)
(-0.139013 -0.00319931 0)
(-0.139637 -0.00321428 0)
(-0.138996 0.00320243 2.29947e-21)
(-0.139672 0.00321556 0)
(-0.139644 0.00321185 0)
)
;
    }
    pipe-3
    {
        type            calculated;
        value           nonuniform List<vector> 
76
(
(-0.126647 0.0167453 0)
(-0.126958 0.0167882 0)
(-0.1144 0.0156244 0)
(-0.114064 -0.0155762 -6.1959e-21)
(-0.109263 0.0117573 0)
(-0.1144 -0.0156244 0)
(-0.126958 -0.0167882 0)
(-0.126647 -0.0167453 0)
(-0.139662 0.00321742 2.53949e-21)
(-0.13962 0.00321185 7.05651e-21)
(-0.136772 0.00917849 -1.15296e-20)
(-0.136606 0.00915728 0)
(-0.132589 -0.0139173 -0)
(-0.108946 -0.011726 4.76754e-21)
(-0.109277 -0.0117597 8.80605e-21)
(-0.120449 -0.0173624 0)
(-0.120444 -0.0173618 2.22054e-20)
(-0.132589 0.0139173 0)
(-0.13688 -0.00918219 -1.49662e-20)
(-0.13893 -0.00319178 0)
(-0.139699 -0.00321828 -2.54017e-21)
(-0.139554 -0.00321229 -2.58981e-21)
(-0.13235 -0.0138933 -0)
(-0.128425 -0.0162072 -0)
(-0.128425 0.0162072 0)
(-0.13235 0.0138933 0)
(-0.118777 -0.0171267 -0)
(-0.114309 -0.0156124 -0)
(-0.114309 0.0156124 0)
(-0.118777 0.0171267 0)
(-0.139704 -0.00321562 4.97922e-21)
(-0.136916 -0.00918042 -0)
(-0.136832 -0.00917692 -0)
(-0.114064 0.0155762 6.1959e-21)
(-0.105613 0.00628812 -7.51432e-22)
(-0.105827 0.00630253 0)
(-0.10466 0 0)
(-0.105693 -0.00628817 6.9003e-22)
(-0.109263 -0.0117573 -0)
(-0.109029 -0.0117336 -0)
(-0.105613 -0.00628812 7.51432e-22)
(-0.105827 -0.00630253 0)
(-0.10466 0 0)
(-0.105693 0.00628817 -6.9003e-22)
(-0.109029 0.0117336 0)
(-0.126787 0.016765 -2.27363e-20)
(-0.136886 -0.00918313 0)
(-0.136832 0.00917692 0)
(-0.136916 0.00918042 0)
(-0.139704 0.00321562 0)
(-0.136937 0.00918656 0)
(-0.139626 -0.00321391 -0)
(-0.136712 -0.00916889 -0)
(-0.132488 0.0139061 0)
(-0.132606 0.0139183 1.34145e-20)
(-0.126787 -0.016765 2.27363e-20)
(-0.120444 0.0173618 -2.22054e-20)
(-0.120449 0.0173624 0)
(-0.108946 0.011726 -4.76754e-21)
(-0.109277 0.0117597 -8.80605e-21)
(-0.120412 -0.017357 -0)
(-0.114048 -0.0155743 -0)
(-0.105739 0.00629186 0)
(-0.104583 0 0)
(-0.105847 -0.00630075 -0)
(-0.105663 -0.00629443 -1.17478e-21)
(-0.105739 -0.00629186 0)
(-0.104583 0 0)
(-0.105847 0.00630075 0)
(-0.105663 0.00629443 1.17478e-21)
(-0.114048 0.0155743 0)
(-0.120412 0.017357 0)
(-0.132473 -0.0139045 0)
(-0.132606 -0.0139183 -1.34145e-20)
(-0.136712 0.00916889 0)
(-0.139626 0.00321391 0)
)
;
    }
    pipe-4
    {
        type            calculated;
        value           nonuniform List<vector> 
78
(
(-0.113999 -0.0155697 0)
(-0.109276 -0.0117583 0)
(-0.10897 0.0117249 -2.64599e-21)
(-0.126821 -0.0167699 2.38587e-20)
(-0.114382 0.0156221 1.38543e-20)
(-0.136812 -0.0091746 -1.04439e-20)
(-0.138841 -0.00319582 0)
(-0.136921 -0.0091819 0)
(-0.136863 0.00917803 0)
(-0.139128 0.00320251 5.11598e-21)
(-0.138841 0.00319582 0)
(-0.136921 0.0091819 0)
(-0.139128 -0.00320252 5.11599e-21)
(-0.136863 -0.00917806 -0)
(-0.136812 0.0091746 1.04439e-20)
(-0.109276 0.0117583 0)
(-0.120192 -0.0173254 0)
(-0.120374 -0.0173517 -9.1563e-21)
(-0.118376 -0.0170435 0)
(-0.114285 -0.0156088 1.53007e-20)
(-0.114144 0.0155894 0)
(-0.126814 -0.0167692 0)
(-0.13692 0.00918176 0)
(-0.136666 -0.00916502 4.12421e-21)
(-0.139359 -0.00320764 0)
(-0.138854 0.00319587 0)
(-0.139205 0.00320407 0)
(-0.139359 0.00320764 5.95178e-21)
(-0.136666 0.00916502 -4.12421e-21)
(-0.139205 -0.00320408 -0)
(-0.138855 -0.00319588 -0)
(-0.120192 0.0173254 0)
(-0.120374 0.0173517 9.1563e-21)
(-0.118376 0.0170435 0)
(-0.114144 -0.0155894 -0)
(-0.120442 -0.0173614 -0)
(-0.105814 -0.00630027 0)
(-0.105636 -0.00628923 0)
(-0.105761 0.00629661 0)
(-0.105809 0.00629963 0)
(-0.126968 0.0167895 0)
(-0.120448 0.0173623 -1.18889e-20)
(-0.126609 0.0167418 1.02684e-20)
(-0.126821 0.0167699 -2.38587e-20)
(-0.126814 0.0167692 0)
(-0.126609 -0.0167418 -1.02684e-20)
(-0.113999 0.0155697 0)
(-0.114285 0.0156088 -1.53007e-20)
(-0.114382 -0.0156221 -1.38543e-20)
(-0.10897 -0.0117249 2.64599e-21)
(-0.126968 -0.0167895 -0)
(-0.120448 -0.0173623 1.18889e-20)
(-0.105814 0.00630027 9.64335e-22)
(-0.105636 0.00628923 0)
(-0.105761 -0.00629661 -0)
(-0.105809 -0.00629963 -1.00237e-21)
(-0.10898 -0.0117262 0)
(-0.105691 -0.0062923 0)
(-0.104686 0 0)
(-0.104543 0 0)
(-0.105575 0.00628609 0)
(-0.109287 0.0117595 0)
(-0.120442 0.0173614 0)
(-0.132513 -0.0139094 -1.63793e-20)
(-0.13262 -0.0139204 1.37108e-20)
(-0.132632 0.0139217 0)
(-0.132481 0.0139062 0)
(-0.13692 -0.00918176 -0)
(-0.13262 0.0139204 -1.37108e-20)
(-0.132513 0.0139094 1.63793e-20)
(-0.132481 -0.0139062 -0)
(-0.132632 -0.0139217 -0)
(-0.10898 0.0117262 0)
(-0.105691 0.0062923 0)
(-0.104686 0 0)
(-0.104543 0 0)
(-0.105575 -0.00628609 -0)
(-0.109287 -0.0117595 -0)
)
;
    }
    frontAndBack
    {
        type            empty;
    }
    cyclic_top
    {
        type            cyclic;
    }
    cyclic_bottom
    {
        type            cyclic;
    }
}


// ************************************************************************* //
