/*--------------------------------*- C++ -*----------------------------------*\
  =========                 |
  \\      /  F ield         | OpenFOAM: The Open Source CFD Toolbox
   \\    /   O peration     | Website:  https://openfoam.org
    \\  /    A nd           | Version:  12
     \\/     M anipulation  |
\*---------------------------------------------------------------------------*/
FoamFile
{
    format      ascii;
    class       volScalarField;
    location    "0";
    object      wallHeatFlux;
}
// * * * * * * * * * * * * * * * * * * * * * * * * * * * * * * * * * * * * * //

dimensions      [1 0 -3 0 0 0 0];

internalField   uniform 0;

boundaryField
{
    inlet
    {
        type            calculated;
        value           uniform 0;
    }
    outlet
    {
        type            calculated;
        value           uniform 0;
    }
    pipe-0
    {
        type            calculated;
        value           nonuniform List<scalar> 
76
(
12634.4
12669.5
12669.4
12638.7
12638.7
12669.5
12631.2
12660.8
12657.4
12623.5
12653.6
12656.4
12649.6
12666.9
12647.5
12623.5
12659.7
12652.4
12637.7
12637.7
12660.2
12636.4
12669.7
12660.2
12662.3
12643.1
12667.1
12640.9
12653.5
12652.8
12651.7
12659.6
12657.4
12647.8
12649.8
12657.4
12663.4
12669.4
12651.8
12634.4
12652.8
12669.7
12636.4
12660.2
12662.3
12643.1
12667.1
12640.9
12650.1
12653.1
12660.1
12640.3
12657.3
12657.5
12630.2
12660.2
12656.7
12649.4
12661.6
12635.5
12663.8
12665.7
12635
12648.4
12661.4
12652.4
12657.5
12657.3
12631.2
12653.5
12656.7
12630.2
12650.1
12653.1
12660.1
12640.3
)
;
    }
    pipe-1
    {
        type            calculated;
        value           nonuniform List<scalar> 
78
(
12670.6
12662.7
12704.9
12658.3
12649.7
12668.2
12670.1
12625.4
12670.1
12635.9
12659.1
12668.2
12649.7
12670.6
12662.7
12658.3
12704.9
12709.1
12644.7
12634.2
12661.4
12657.2
12634.2
12652.4
12659
12656.6
12641.1
12656.9
12634.2
12652.4
12659
12656.6
12641.1
12664.7
12662.4
12644.7
12634.2
12657.9
12694.3
12694.3
12659.1
12673
12638.5
12625.4
12635.9
12659.2
12639.2
12654.2
12659.6
12659.2
12639.2
12654.2
12659.6
12673
12657.9
12657.2
12638.5
12709.1
12662.4
12652.7
12650
12664.7
12636.1
12646.2
12666.2
12647.3
12631
12672.8
12636.1
12646.2
12666.2
12647.3
12631
12672.8
12656.9
12652.7
12661.4
12650
)
;
    }
    pipe-2
    {
        type            calculated;
        value           nonuniform List<scalar> 
78
(
12664.9
12630.3
12665.3
12631.5
12636.7
12630.4
12628.3
12660.7
12670.1
12670.1
12630.4
12628.3
12660.7
12630.3
12665.3
12636.7
12631.5
12631.8
12627.9
12652.8
12658.3
12672
12657
12639.9
12666.8
12639.9
12658.3
12672
12651.3
12657
12631.4
12645.2
12657.7
12652.9
12628.9
12670.2
12633.4
12649.6
12670
12649.6
12670
12633.4
12664.9
12631.4
12645.2
12657.7
12652.9
12670.2
12628.9
12657.5
12658
12640.8
12662
12651.7
12651.3
12638.4
12670.7
12632.6
12660.8
12632.7
12651.3
12665.3
12660.8
12632.6
12651.3
12665.3
12632.7
12666.8
12638.4
12670.7
12651.7
12652.8
12631.8
12627.9
12657.5
12658
12640.8
12662
)
;
    }
    pipe-5
    {
        type            calculated;
        value           nonuniform List<scalar> 
78
(
12673.4
12631.4
12628.8
12661
12631.4
12665.1
12637
12632.2
12663
12631.4
12665.1
12632.2
12637
12631.4
12628.8
12661
12673.4
12672.8
12640.7
12667.6
12673.9
12653.1
12631.6
12671.5
12627.2
12654.8
12660.4
12673.9
12640.7
12667.6
12672.8
12703.2
12633.8
12663
12630.2
12645.7
12658.6
12651.8
12671.5
12628.5
12630.2
12645.7
12658.6
12651.8
12628.5
12633.8
12703.2
12697.5
12640.7
12700.7
12698.1
12639.2
12660.4
12638.4
12671.1
12655.3
12654.8
12631.6
12627.2
12657.8
12656.4
12658
12641.3
12661.3
12656.4
12658
12641.3
12661.3
12655.3
12657.8
12653.1
12638.4
12671.1
12640.7
12697.5
12639.2
12700.7
12698.1
)
;
    }
    pipe-3
    {
        type            calculated;
        value           nonuniform List<scalar> 
76
(
12638.9
12670.4
12670.3
12633.7
12668.1
12670.3
12670.4
12638.9
12699.8
12695.9
12647.6
12631.7
12659.8
12630.9
12669.7
12657.3
12657.3
12659.8
12657.4
12633.1
12703.2
12689.9
12637.1
12652.7
12652.7
12637.1
12654.6
12660
12660
12654.6
12703.6
12660.5
12652.9
12633.7
12635.4
12660.9
12662.2
12645.1
12668.1
12640.8
12635.4
12660.9
12662.2
12645.1
12640.8
12653.2
12658
12652.9
12660.5
12703.6
12662.8
12696.5
12641.8
12650.1
12661.3
12653.2
12657.3
12657.3
12630.9
12669.7
12653.4
12631.8
12650.6
12652.9
12663.4
12641.2
12650.6
12652.9
12663.4
12641.2
12631.8
12653.4
12648.6
12661.3
12641.8
12696.5
)
;
    }
    pipe-4
    {
        type            calculated;
        value           nonuniform List<scalar> 
78
(
12625.8
12669.6
12634.2
12656.7
12668.3
12651
12625.1
12661.1
12655.7
12651.2
12625.1
12661.1
12651.2
12655.7
12651
12669.6
12630.6
12649.7
12658
12657.5
12641.9
12656
12661
12637.5
12672.2
12626.3
12658.2
12672.2
12637.5
12658.2
12626.4
12630.6
12649.7
12658
12641.9
12656.8
12659.4
12638.1
12653
12658.8
12671.4
12657.5
12635.4
12656.7
12656
12635.4
12625.8
12657.5
12668.3
12634.2
12671.4
12657.5
12659.4
12638.1
12653
12658.8
12635.4
12644.7
12665.4
12648.1
12630.8
12671
12656.8
12652.5
12662.7
12663.8
12649.5
12661
12662.7
12652.5
12649.5
12663.8
12635.4
12644.7
12665.4
12648.1
12630.8
12671
)
;
    }
    frontAndBack
    {
        type            empty;
    }
    cyclic_top
    {
        type            cyclic;
    }
    cyclic_bottom
    {
        type            cyclic;
    }
}


// ************************************************************************* //
