/*--------------------------------*- C++ -*----------------------------------*\
  =========                 |
  \\      /  F ield         | OpenFOAM: The Open Source CFD Toolbox
   \\    /   O peration     | Website:  https://openfoam.org
    \\  /    A nd           | Version:  12
     \\/     M anipulation  |
\*---------------------------------------------------------------------------*/
FoamFile
{
    format      ascii;
    class       volVectorField;
    location    "0";
    object      wallShearStress;
}
// * * * * * * * * * * * * * * * * * * * * * * * * * * * * * * * * * * * * * //

dimensions      [1 -1 -2 0 0 0 0];

internalField   uniform (0 0 0);

boundaryField
{
    inlet
    {
        type            calculated;
        value           uniform (0 0 0);
    }
    outlet
    {
        type            calculated;
        value           uniform (0 0 0);
    }
    pipe-0
    {
        type            calculated;
        value           nonuniform List<vector> 
76
(
(-0.158698 -0.021675 0)
(-0.159135 -0.0217333 1.89012e-20)
(-0.176606 -0.0233525 0)
(-0.176176 -0.023296 0)
(-0.176176 0.023296 0)
(-0.159135 0.0217333 -1.89012e-20)
(-0.151557 -0.0163068 6.63158e-21)
(-0.190465 -0.0127842 1.201e-20)
(-0.190422 -0.0127682 0)
(-0.193125 -0.00443636 1.91129e-21)
(-0.193584 -0.00445499 7.04604e-21)
(-0.193626 -0.00446178 3.59017e-21)
(-0.193522 0.00445356 7.04379e-21)
(-0.193786 0.00446102 -9.78799e-21)
(-0.190273 0.0127593 0)
(-0.189914 0.0127321 0)
(-0.184451 -0.0193596 -1.98069e-20)
(-0.178653 0.022546 0)
(-0.184128 0.0193282 0)
(-0.184128 -0.0193282 -0)
(-0.159019 -0.0217175 -2.13099e-20)
(-0.146935 -0.00874715 0)
(-0.152021 -0.0163588 -1.225e-20)
(-0.147212 -0.00876558 0)
(-0.145597 0 0)
(-0.147013 0.00875213 -9.60413e-22)
(-0.151988 0.0163539 0)
(-0.151674 0.0163213 -5.4296e-21)
(-0.167509 0.024146 0)
(-0.176375 0.0233214 -3.16311e-20)
(-0.190335 0.0127665 0)
(-0.18445 0.0193595 1.98068e-20)
(-0.190421 0.0127718 1.48067e-20)
(-0.193495 0.00445591 0)
(-0.193525 -0.00445658 -0)
(-0.190425 -0.0127637 -0)
(-0.190505 0.0127869 -1.20126e-20)
(-0.176606 0.0233525 0)
(-0.190336 -0.0127666 -0)
(-0.158698 0.021675 0)
(-0.176375 -0.0233214 3.16311e-20)
(-0.152021 0.0163588 0)
(-0.146935 0.00874715 0)
(-0.147212 0.00876558 0)
(-0.145597 0 0)
(-0.147013 -0.00875213 -0)
(-0.151988 -0.0163539 -0)
(-0.151674 -0.0163213 5.4296e-21)
(-0.147094 -0.00875691 0)
(-0.145491 0 0)
(-0.147211 0.00876541 0)
(-0.146981 0.00875091 0)
(-0.167562 -0.0241535 0)
(-0.167558 -0.0241532 -3.08915e-20)
(-0.158642 0.0216662 0)
(-0.159019 0.0217175 2.13099e-20)
(-0.165268 0.0238305 2.57632e-20)
(-0.184302 -0.0193437 0)
(-0.184478 -0.0193629 0)
(-0.19009 0.0127515 -6.1253e-21)
(-0.19374 0.00445783 0)
(-0.193769 -0.00446045 -0)
(-0.190082 -0.0127517 -0)
(-0.184287 0.0193422 0)
(-0.184476 0.0193627 0)
(-0.178653 -0.022546 -0)
(-0.167558 0.0241532 3.08915e-20)
(-0.167562 0.0241535 0)
(-0.151557 0.0163068 -6.63158e-21)
(-0.167509 -0.024146 -0)
(-0.165268 -0.0238305 -2.57632e-20)
(-0.158642 -0.0216662 -0)
(-0.147094 0.00875691 0)
(-0.145491 0 0)
(-0.147211 -0.00876541 -0)
(-0.146981 -0.00875091 -0)
)
;
    }
    pipe-1
    {
        type            calculated;
        value           nonuniform List<vector> 
78
(
(-0.193844 0.00446353 -4.78257e-21)
(-0.190497 0.0127809 0)
(-0.194369 -0.00447164 -0)
(-0.190433 -0.0127729 -0)
(-0.190305 0.0127624 0)
(-0.159121 -0.0217323 -1.92778e-20)
(-0.152027 0.0163609 0)
(-0.158584 -0.0216593 6.3465e-21)
(-0.152027 -0.0163609 0)
(-0.151617 0.0163173 0)
(-0.17646 -0.0233339 0)
(-0.159121 0.0217323 1.92778e-20)
(-0.190305 -0.0127624 0)
(-0.193844 -0.00446353 4.78257e-21)
(-0.190497 -0.0127809 0)
(-0.190433 0.0127729 0)
(-0.194369 0.00447164 0)
(-0.194433 0.00447468 0)
(-0.19023 0.0127566 0)
(-0.193286 -0.00445358 -0)
(-0.184477 0.0193614 0)
(-0.176439 0.0233293 0)
(-0.167258 0.0241096 -1.26062e-20)
(-0.167494 0.0241439 0)
(-0.164686 0.0237105 0)
(-0.158976 0.0217124 0)
(-0.15878 -0.0216853 -8.33147e-21)
(-0.167553 -0.0241524 2.96195e-20)
(-0.167258 -0.0241096 1.26062e-20)
(-0.167494 -0.0241439 0)
(-0.164686 -0.0237105 0)
(-0.158976 -0.0217124 0)
(-0.15878 0.0216853 8.33147e-21)
(-0.184522 0.0193693 0)
(-0.190497 0.0127754 0)
(-0.19023 -0.0127566 0)
(-0.193286 0.00445358 0)
(-0.167567 -0.0241543 -1.65397e-20)
(-0.194207 -0.00447031 -0)
(-0.194207 0.00447031 0)
(-0.17646 0.0233339 0)
(-0.176656 -0.0233593 -2.7393e-20)
(-0.176175 -0.0232956 -0)
(-0.158584 0.0216593 -6.3465e-21)
(-0.151617 -0.0163173 -0)
(-0.147199 0.00876234 1.34124e-21)
(-0.14697 0.00875496 0)
(-0.14714 -0.00875663 1.3051e-21)
(-0.147206 -0.00876685 -0)
(-0.147199 -0.00876234 -1.34124e-21)
(-0.14697 -0.00875496 0)
(-0.14714 0.00875663 -1.3051e-21)
(-0.147206 0.00876685 0)
(-0.176656 0.0233593 2.7393e-20)
(-0.167567 0.0241543 1.65397e-20)
(-0.176439 -0.0233293 0)
(-0.176175 0.0232956 0)
(-0.194433 -0.00447468 0)
(-0.190497 -0.0127754 -0)
(-0.184343 0.0193527 0)
(-0.184309 -0.0193451 -0)
(-0.184522 -0.0193693 -0)
(-0.151618 0.0163156 0)
(-0.147047 0.00874984 1.43691e-21)
(-0.145643 0 0)
(-0.145425 0 0)
(-0.146872 -0.00874331 -0)
(-0.152058 -0.016363 1.17188e-20)
(-0.151618 -0.0163156 0)
(-0.147047 -0.00874984 -1.43691e-21)
(-0.145643 0 0)
(-0.145425 0 0)
(-0.146872 0.00874331 -1.26571e-21)
(-0.152058 0.016363 0)
(-0.167553 0.0241524 -2.96195e-20)
(-0.184343 -0.0193527 0)
(-0.184477 -0.0193614 0)
(-0.184309 0.0193451 0)
)
;
    }
    pipe-2
    {
        type            calculated;
        value           nonuniform List<vector> 
78
(
(-0.151962 -0.0163515 -7.18781e-21)
(-0.158646 -0.0216677 -1.05368e-20)
(-0.159082 0.0217261 -2.08637e-20)
(-0.158662 0.0216706 -6.07644e-21)
(-0.176148 0.0232925 1.47641e-20)
(-0.190015 -0.0127423 0)
(-0.176032 -0.0232765 0)
(-0.176484 0.0233366 -1.85879e-20)
(-0.190612 -0.0127854 -3.20965e-20)
(-0.190612 0.0127854 3.20965e-20)
(-0.190015 0.0127423 0)
(-0.176032 0.0232765 0)
(-0.176484 -0.0233366 1.85879e-20)
(-0.158646 0.0216677 1.05368e-20)
(-0.159082 -0.0217261 2.08637e-20)
(-0.176148 -0.0232925 -1.47641e-20)
(-0.158662 -0.0216706 6.07644e-21)
(-0.151568 -0.016312 2.61695e-21)
(-0.158613 0.0216621 4.64932e-21)
(-0.167502 -0.0241449 -2.62878e-20)
(-0.176448 -0.0233328 0)
(-0.159167 -0.0217379 0)
(-0.167555 0.0241527 -2.48955e-20)
(-0.184163 -0.0193289 0)
(-0.184551 -0.0193733 3.35694e-20)
(-0.184163 0.0193289 0)
(-0.176448 0.0233328 0)
(-0.159167 0.0217379 0)
(-0.17049 -0.0242327 -0)
(-0.167555 -0.0241527 2.48955e-20)
(-0.151558 -0.0163067 0)
(-0.145401 0 0)
(-0.145544 0 0)
(-0.147126 0.00875871 -2.32064e-21)
(-0.151531 0.016306 0)
(-0.152025 0.0163584 1.13209e-20)
(-0.19006 0.0127471 0)
(-0.193522 -0.00445648 7.31411e-21)
(-0.190609 0.0127844 0)
(-0.193521 0.00445647 7.3141e-21)
(-0.190609 -0.0127844 1.63384e-20)
(-0.19006 -0.0127471 -0)
(-0.151962 0.0163515 7.18781e-21)
(-0.151558 0.0163067 0)
(-0.145401 0 0)
(-0.145544 0 0)
(-0.147126 -0.00875871 2.32064e-21)
(-0.152025 -0.0163584 -1.13209e-20)
(-0.151531 -0.016306 -0)
(-0.14718 -0.00876193 0)
(-0.147187 -0.00876365 2.14566e-21)
(-0.145351 0 0)
(-0.147233 0.00876632 0)
(-0.169917 -0.0242452 -2.96236e-20)
(-0.17049 0.0242327 0)
(-0.184143 0.019325 -1.44141e-20)
(-0.184607 0.0193801 -3.24675e-20)
(-0.193264 -0.00444079 0)
(-0.193693 -0.00446054 0)
(-0.193263 0.00445133 0)
(-0.19355 0.00445116 0)
(-0.193763 0.00446212 -3.75864e-21)
(-0.193693 0.00446054 0)
(-0.193264 0.00444079 0)
(-0.19355 -0.00445116 -0)
(-0.193763 -0.00446213 3.75864e-21)
(-0.193263 -0.00445133 -0)
(-0.184551 0.0193733 0)
(-0.184143 -0.019325 1.44141e-20)
(-0.184607 -0.0193801 -0)
(-0.169917 0.0242452 2.96236e-20)
(-0.167502 0.0241449 2.62878e-20)
(-0.151568 0.016312 -2.61695e-21)
(-0.158613 -0.0216621 -4.64932e-21)
(-0.14718 0.00876193 0)
(-0.147187 0.00876365 -2.14566e-21)
(-0.145351 0 0)
(-0.147233 -0.00876632 -0)
)
;
    }
    pipe-5
    {
        type            calculated;
        value           nonuniform List<vector> 
78
(
(-0.190661 0.0127862 0)
(-0.19003 0.0127431 9.14765e-21)
(-0.17604 0.0232776 0)
(-0.176487 -0.0233372 1.85885e-20)
(-0.158665 0.0216719 1.05389e-20)
(-0.159082 -0.0217269 -0)
(-0.176157 -0.0232917 -1.47636e-20)
(-0.158667 -0.0216696 6.07411e-21)
(-0.15194 -0.0163491 0)
(-0.158665 -0.0216719 -1.05389e-20)
(-0.159082 0.0217269 0)
(-0.158667 0.0216696 -6.07411e-21)
(-0.176157 0.0232917 1.47636e-20)
(-0.19003 -0.0127431 -9.14765e-21)
(-0.17604 -0.0232776 0)
(-0.176487 0.0233372 -1.85885e-20)
(-0.190661 -0.0127862 0)
(-0.190652 -0.0127868 -1.63414e-20)
(-0.184175 0.0193305 0)
(-0.184564 0.0193739 0)
(-0.159189 0.0217402 0)
(-0.170516 -0.0242362 -0)
(-0.151565 -0.0163117 2.6169e-21)
(-0.152045 0.0163634 0)
(-0.158594 0.0216558 0)
(-0.167526 -0.0241485 0)
(-0.176479 -0.0233361 0)
(-0.159189 -0.0217402 0)
(-0.184175 -0.0193305 0)
(-0.184564 -0.0193739 0)
(-0.190652 0.0127868 1.63414e-20)
(-0.194342 0.00447345 0)
(-0.190065 -0.0127472 -0)
(-0.15194 0.0163491 0)
(-0.151549 0.0163097 -4.81825e-21)
(-0.145406 0 0)
(-0.145554 0 0)
(-0.147114 -0.00875728 -0)
(-0.152045 -0.0163634 -1.13256e-20)
(-0.151524 -0.0163036 4.03412e-21)
(-0.151549 -0.0163097 4.81825e-21)
(-0.145406 0 0)
(-0.145554 0 0)
(-0.147114 0.00875728 0)
(-0.151524 0.0163036 0)
(-0.190065 0.0127472 0)
(-0.194342 -0.00447345 0)
(-0.194256 0.00447153 0)
(-0.193387 0.00445071 -3.25915e-21)
(-0.194304 -0.0044733 -0)
(-0.194265 -0.00446815 -0)
(-0.193363 -0.00445504 -3.19889e-21)
(-0.176479 0.0233361 0)
(-0.184141 -0.0193266 -0)
(-0.184612 -0.0193808 -0)
(-0.169966 0.024252 0)
(-0.167526 0.0241485 0)
(-0.151565 0.0163117 0)
(-0.158594 -0.0216558 -0)
(-0.167563 -0.0241539 -0)
(-0.147167 0.00876118 -2.11655e-21)
(-0.147186 0.00876235 -2.14535e-21)
(-0.145356 0 0)
(-0.147225 -0.00876526 1.96996e-21)
(-0.147167 -0.00876118 0)
(-0.147186 -0.00876235 0)
(-0.145356 0 0)
(-0.147225 0.00876526 -1.96996e-21)
(-0.169966 -0.024252 0)
(-0.167563 0.0241539 0)
(-0.170516 0.0242362 0)
(-0.184141 0.0193266 0)
(-0.184612 0.0193808 0)
(-0.193387 -0.00445071 0)
(-0.194256 -0.00447153 0)
(-0.193363 0.00445504 3.19889e-21)
(-0.194304 0.0044733 0)
(-0.194265 0.00446815 0)
)
;
    }
    pipe-3
    {
        type            calculated;
        value           nonuniform List<vector> 
76
(
(-0.176185 0.0232952 0)
(-0.176618 0.0233548 0)
(-0.159148 0.0217359 0)
(-0.158679 -0.0216688 -8.61939e-21)
(-0.152001 0.0163561 0)
(-0.159148 -0.0217359 0)
(-0.176618 -0.0233548 0)
(-0.176185 -0.0232952 0)
(-0.19429 0.0044759 3.5328e-21)
(-0.194232 0.00446814 9.81663e-21)
(-0.190269 0.0127686 -1.60394e-20)
(-0.190038 0.0127391 0)
(-0.184451 -0.0193609 -0)
(-0.151559 -0.0163126 6.63234e-21)
(-0.152021 -0.0163594 1.22505e-20)
(-0.167563 -0.0241536 0)
(-0.167555 -0.0241528 3.0891e-20)
(-0.184451 0.0193609 0)
(-0.19042 -0.0127738 -2.08201e-20)
(-0.193272 -0.00444023 0)
(-0.194341 -0.00447709 -3.53374e-21)
(-0.19414 -0.00446877 -3.6028e-21)
(-0.184119 -0.0193276 -0)
(-0.178657 -0.0225465 -0)
(-0.178657 0.0225465 0)
(-0.184119 0.0193276 0)
(-0.165236 -0.0238258 -0)
(-0.15902 -0.0217191 -0)
(-0.15902 0.0217191 0)
(-0.165236 0.0238258 0)
(-0.194348 -0.0044734 6.92682e-21)
(-0.19047 -0.0127713 -0)
(-0.190353 -0.0127664 -0)
(-0.158679 0.0216688 8.61939e-21)
(-0.146923 0.00874769 -1.04535e-21)
(-0.147221 0.00876772 0)
(-0.145597 0 0)
(-0.147034 -0.00874775 9.59932e-22)
(-0.152001 -0.0163561 -0)
(-0.151676 -0.0163232 -0)
(-0.146923 -0.00874769 1.04535e-21)
(-0.147221 -0.00876772 0)
(-0.145597 0 0)
(-0.147034 0.00874775 -9.59932e-22)
(-0.151676 0.0163232 0)
(-0.176379 0.0233226 -3.16294e-20)
(-0.190428 -0.0127751 0)
(-0.190353 0.0127664 0)
(-0.19047 0.0127713 0)
(-0.194348 0.0044734 0)
(-0.190499 0.0127798 0)
(-0.194241 -0.00447102 -0)
(-0.190186 -0.0127552 -0)
(-0.18431 0.0193454 0)
(-0.184475 0.0193624 1.86614e-20)
(-0.176379 -0.0233226 3.16294e-20)
(-0.167555 0.0241528 -3.0891e-20)
(-0.167563 0.0241536 0)
(-0.151559 0.0163126 -6.63234e-21)
(-0.152021 0.0163594 -1.22505e-20)
(-0.16751 -0.024146 -0)
(-0.158657 -0.0216662 -0)
(-0.147099 0.00875289 0)
(-0.14549 0 0)
(-0.147248 -0.00876525 -0)
(-0.146993 -0.00875646 -1.63429e-21)
(-0.147099 -0.00875289 0)
(-0.14549 0 0)
(-0.147248 0.00876525 0)
(-0.146993 0.00875646 1.63429e-21)
(-0.158657 0.0216662 0)
(-0.16751 0.024146 0)
(-0.184289 -0.0193432 0)
(-0.184475 -0.0193624 -1.86614e-20)
(-0.190186 0.0127552 0)
(-0.194241 0.00447102 0)
)
;
    }
    pipe-4
    {
        type            calculated;
        value           nonuniform List<vector> 
78
(
(-0.158589 -0.0216597 0)
(-0.152018 -0.0163575 0)
(-0.151592 0.016311 -3.68095e-21)
(-0.176426 -0.0233294 3.3191e-20)
(-0.159122 0.0217326 1.92734e-20)
(-0.190326 -0.0127632 -1.4529e-20)
(-0.193148 -0.00444585 0)
(-0.190477 -0.0127733 0)
(-0.190396 0.012768 0)
(-0.193547 0.00445515 7.11706e-21)
(-0.193148 0.00444585 0)
(-0.190477 0.0127733 0)
(-0.193547 -0.00445516 7.11708e-21)
(-0.190396 -0.012768 -0)
(-0.190326 0.0127632 1.4529e-20)
(-0.152018 0.0163575 0)
(-0.167205 -0.0241022 0)
(-0.167458 -0.0241387 -1.27377e-20)
(-0.164679 -0.0237099 0)
(-0.158987 -0.0217141 2.12855e-20)
(-0.15879 0.0216871 0)
(-0.176417 -0.0233284 0)
(-0.190476 0.0127732 0)
(-0.190122 -0.0127499 5.73737e-21)
(-0.193868 -0.0044623 0)
(-0.193166 0.00444592 0)
(-0.193654 0.00445732 0)
(-0.193868 0.0044623 8.27978e-21)
(-0.190122 0.0127499 -5.73737e-21)
(-0.193654 -0.00445734 -0)
(-0.193167 -0.00444593 -0)
(-0.167205 0.0241022 0)
(-0.167458 0.0241387 1.27377e-20)
(-0.164679 0.0237099 0)
(-0.15879 -0.0216871 -0)
(-0.167552 -0.0241522 -0)
(-0.147202 -0.00876459 0)
(-0.146954 -0.00874923 0)
(-0.147128 0.00875949 0)
(-0.147196 0.00876369 0)
(-0.176631 0.0233566 0)
(-0.167561 0.0241535 -1.65392e-20)
(-0.176131 0.0232902 1.42848e-20)
(-0.176426 0.0233294 -3.3191e-20)
(-0.176417 0.0233284 0)
(-0.176131 -0.0232902 -1.42848e-20)
(-0.158589 0.0216597 0)
(-0.158987 0.0217141 -2.12855e-20)
(-0.159122 -0.0217326 -1.92734e-20)
(-0.151592 -0.016311 3.68095e-21)
(-0.176631 -0.0233566 -0)
(-0.167561 -0.0241535 1.65392e-20)
(-0.147202 0.00876459 1.34153e-21)
(-0.146954 0.00874923 0)
(-0.147128 -0.00875949 -0)
(-0.147196 -0.00876369 -1.39444e-21)
(-0.151607 -0.0163128 0)
(-0.147032 -0.0087535 0)
(-0.145633 0 0)
(-0.145434 0 0)
(-0.14687 0.00874487 0)
(-0.152035 0.0163591 0)
(-0.167552 0.0241522 0)
(-0.184345 -0.01935 -2.27859e-20)
(-0.184493 -0.0193653 1.90737e-20)
(-0.18451 0.0193671 0)
(-0.1843 0.0193455 0)
(-0.190476 -0.0127732 -0)
(-0.184493 0.0193653 -1.90737e-20)
(-0.184345 0.01935 2.27859e-20)
(-0.1843 -0.0193455 -0)
(-0.18451 -0.0193671 -0)
(-0.151607 0.0163128 0)
(-0.147032 0.0087535 0)
(-0.145633 0 0)
(-0.145434 0 0)
(-0.14687 -0.00874487 -0)
(-0.152035 -0.0163591 -0)
)
;
    }
    frontAndBack
    {
        type            empty;
    }
    cyclic_top
    {
        type            cyclic;
    }
    cyclic_bottom
    {
        type            cyclic;
    }
}


// ************************************************************************* //
