/*--------------------------------*- C++ -*----------------------------------*\
  =========                 |
  \\      /  F ield         | OpenFOAM: The Open Source CFD Toolbox
   \\    /   O peration     | Website:  https://openfoam.org
    \\  /    A nd           | Version:  12
     \\/     M anipulation  |
\*---------------------------------------------------------------------------*/
FoamFile
{
    format      ascii;
    class       volScalarField;
    location    "0";
    object      yPlus;
}
// * * * * * * * * * * * * * * * * * * * * * * * * * * * * * * * * * * * * * //

dimensions      [];

internalField   uniform 0;

boundaryField
{
    inlet
    {
        type            calculated;
        value           uniform 0;
    }
    outlet
    {
        type            calculated;
        value           uniform 0;
    }
    pipe-0
    {
        type            calculated;
        value           nonuniform List<scalar> 
76
(
2.60343
2.59983
2.59983
2.60299
2.60299
2.59983
2.60376
2.60072
2.60107
2.60455
2.60145
2.60117
2.60187
2.6001
2.60208
2.60455
2.60083
2.60158
2.60309
2.60309
2.60078
2.60322
2.5998
2.60078
2.60057
2.60254
2.60007
2.60277
2.60146
2.60154
2.60165
2.60084
2.60106
2.60205
2.60185
2.60107
2.60045
2.59983
2.60164
2.60343
2.60154
2.5998
2.60322
2.60078
2.60057
2.60254
2.60007
2.60277
2.60182
2.60151
2.60079
2.60282
2.60108
2.60106
2.60387
2.60078
2.60114
2.60189
2.60064
2.60332
2.60041
2.60021
2.60337
2.60199
2.60066
2.60158
2.60106
2.60108
2.60376
2.60146
2.60114
2.60387
2.60182
2.60151
2.60079
2.60282
)
;
    }
    pipe-1
    {
        type            calculated;
        value           nonuniform List<scalar> 
78
(
2.59971
2.60052
2.5962
2.60098
2.60186
2.59996
2.59976
2.60436
2.59976
2.60328
2.60089
2.59996
2.60186
2.59971
2.60052
2.60098
2.5962
2.59577
2.60237
2.60345
2.60065
2.60108
2.60345
2.60158
2.6009
2.60115
2.60274
2.60112
2.60345
2.60158
2.6009
2.60115
2.60274
2.60031
2.60055
2.60237
2.60345
2.60102
2.59728
2.59728
2.60089
2.59946
2.60301
2.60436
2.60328
2.60088
2.60294
2.6014
2.60084
2.60088
2.60294
2.6014
2.60084
2.59946
2.60102
2.60108
2.60301
2.59577
2.60055
2.60155
2.60183
2.60031
2.60326
2.60222
2.60016
2.60211
2.60378
2.59948
2.60326
2.60222
2.60016
2.60211
2.60378
2.59948
2.60112
2.60155
2.60065
2.60183
)
;
    }
    pipe-2
    {
        type            calculated;
        value           nonuniform List<scalar> 
78
(
2.6003
2.60386
2.60026
2.60374
2.6032
2.60385
2.60407
2.60073
2.59976
2.59976
2.60385
2.60407
2.60073
2.60386
2.60026
2.6032
2.60374
2.6037
2.6041
2.60154
2.60097
2.59957
2.60111
2.60287
2.6001
2.60287
2.60097
2.59957
2.6017
2.60111
2.60374
2.60232
2.60104
2.60153
2.604
2.59976
2.60353
2.60187
2.59978
2.60187
2.59978
2.60353
2.6003
2.60374
2.60232
2.60104
2.60153
2.59976
2.604
2.60106
2.601
2.60277
2.60059
2.60165
2.6017
2.60302
2.5997
2.60362
2.60072
2.60361
2.60169
2.60025
2.60072
2.60362
2.60169
2.60025
2.60361
2.6001
2.60302
2.5997
2.60165
2.60154
2.6037
2.6041
2.60106
2.601
2.60277
2.60059
)
;
    }
    pipe-5
    {
        type            calculated;
        value           nonuniform List<scalar> 
78
(
2.59943
2.60375
2.60401
2.6007
2.60374
2.60027
2.60317
2.60366
2.60049
2.60374
2.60027
2.60366
2.60317
2.60375
2.60401
2.6007
2.59943
2.59949
2.60278
2.60002
2.59938
2.60151
2.60372
2.59961
2.60418
2.60133
2.60076
2.59938
2.60278
2.60002
2.59949
2.59638
2.6035
2.60049
2.60386
2.60227
2.60095
2.60164
2.59961
2.60404
2.60386
2.60227
2.60095
2.60164
2.60404
2.6035
2.59638
2.59695
2.60278
2.59663
2.59689
2.60293
2.60076
2.60302
2.59966
2.60128
2.60133
2.60372
2.60418
2.60103
2.60117
2.601
2.60272
2.60066
2.60117
2.601
2.60272
2.60066
2.60128
2.60103
2.60151
2.60302
2.59966
2.60278
2.59695
2.60293
2.59663
2.59689
)
;
    }
    pipe-3
    {
        type            calculated;
        value           nonuniform List<scalar> 
76
(
2.60297
2.59973
2.59974
2.60351
2.59997
2.59974
2.59973
2.60297
2.59672
2.59712
2.60207
2.60371
2.60082
2.60379
2.59981
2.60108
2.60108
2.60082
2.60106
2.60357
2.59638
2.59773
2.60315
2.60155
2.60155
2.60315
2.60135
2.60079
2.60079
2.60135
2.59634
2.60075
2.60153
2.60351
2.60333
2.60071
2.60057
2.60233
2.59997
2.60277
2.60333
2.60071
2.60057
2.60233
2.60277
2.6015
2.601
2.60153
2.60075
2.59634
2.60052
2.59705
2.60267
2.60182
2.60066
2.6015
2.60108
2.60108
2.60379
2.59981
2.60148
2.6037
2.60176
2.60153
2.60045
2.60273
2.60176
2.60153
2.60045
2.60273
2.6037
2.60148
2.60197
2.60066
2.60267
2.59705
)
;
    }
    pipe-4
    {
        type            calculated;
        value           nonuniform List<scalar> 
78
(
2.60432
2.59982
2.60346
2.60114
2.59995
2.60172
2.60439
2.60069
2.60124
2.6017
2.60439
2.60069
2.6017
2.60124
2.60172
2.59982
2.60382
2.60186
2.601
2.60106
2.60267
2.60121
2.6007
2.60311
2.59955
2.60427
2.60099
2.59955
2.60311
2.60098
2.60426
2.60382
2.60186
2.601
2.60267
2.60113
2.60087
2.60306
2.60151
2.60092
2.59963
2.60106
2.60333
2.60114
2.60121
2.60333
2.60432
2.60106
2.59995
2.60346
2.59963
2.60106
2.60087
2.60306
2.60151
2.60092
2.60333
2.60237
2.60024
2.60202
2.60381
2.59967
2.60113
2.60157
2.60052
2.60041
2.60188
2.6007
2.60052
2.60157
2.60188
2.60041
2.60333
2.60237
2.60024
2.60202
2.60381
2.59967
)
;
    }
    frontAndBack
    {
        type            empty;
    }
    cyclic_top
    {
        type            cyclic;
    }
    cyclic_bottom
    {
        type            cyclic;
    }
}


// ************************************************************************* //
