/*--------------------------------*- C++ -*----------------------------------*\
  =========                 |
  \\      /  F ield         | OpenFOAM: The Open Source CFD Toolbox
   \\    /   O peration     | Website:  https://openfoam.org
    \\  /    A nd           | Version:  12
     \\/     M anipulation  |
\*---------------------------------------------------------------------------*/
FoamFile
{
    format      ascii;
    class       volScalarField;
    location    "200";
    object      p;
}
// * * * * * * * * * * * * * * * * * * * * * * * * * * * * * * * * * * * * * //

dimensions      [0 2 -2 0 0 0 0];

internalField   nonuniform List<scalar> 
6750
(
0.0215802
0.0215582
0.0215287
0.0213652
0.0203368
0.0230984
0.023062
0.0229346
0.0226687
0.0223093
0.0248912
0.024832
0.0247014
0.0245033
0.0243503
0.0267717
0.0266777
0.0265535
0.0264131
0.0263362
0.0286387
0.0285008
0.0283667
0.0282541
0.0282154
0.0304125
0.0302261
0.0300712
0.0299686
0.0299472
0.0320446
0.0318084
0.0316289
0.031529
0.0315161
0.0335057
0.0332205
0.0330163
0.0329172
0.0329095
0.0347774
0.0344456
0.0342187
0.0341204
0.0341163
0.0358493
0.035475
0.0352285
0.0351316
0.0351301
0.036718
0.0363065
0.0360444
0.0359494
0.0359499
0.0373868
0.0369444
0.0366711
0.0365785
0.03658
0.0378649
0.0373979
0.0371184
0.0370281
0.0370299
0.0381667
0.0376807
0.0374014
0.0373123
0.0373134
0.038305
0.0378133
0.0375393
0.0374477
0.0374467
0.0383049
0.0378132
0.0375393
0.0374477
0.0374467
0.0381666
0.0376806
0.0374013
0.0373122
0.0373133
0.0378648
0.0373978
0.0371183
0.037028
0.0370298
0.0373866
0.0369442
0.0366709
0.0365783
0.0365798
0.0367177
0.0363063
0.0360442
0.0359492
0.0359496
0.035849
0.0354747
0.0352282
0.0351313
0.0351298
0.034777
0.0344453
0.0342183
0.0341201
0.034116
0.0335052
0.0332201
0.0330158
0.0329168
0.0329091
0.032044
0.0318079
0.0316284
0.0315285
0.0315156
0.0304119
0.0302255
0.0300706
0.029968
0.0299466
0.028638
0.0285001
0.028366
0.0282535
0.0282147
0.0267709
0.026677
0.0265527
0.0264123
0.0263355
0.0248903
0.0248311
0.0247005
0.0245024
0.0243494
0.0230976
0.0230611
0.0229337
0.0226677
0.0223084
0.0215792
0.0215572
0.0215278
0.0213643
0.0203357
0.0141578
0.0147504
0.0162187
0.0173036
0.01809
0.0187148
0.0192045
0.0195703
0.0198402
0.0200244
0.0200862
0.0200997
0.0200369
0.0198938
0.0196692
0.0193593
0.0189612
0.018478
0.0179127
0.0172653
0.0165302
0.0158127
0.0150572
0.0142787
0.0134974
0.0127261
0.0119744
0.0112569
0.0105833
0.00990048
0.0180675
0.0188631
0.0196628
0.0200636
0.0202924
0.0204336
0.0204894
0.0204688
0.0204007
0.0202824
0.0200725
0.0198852
0.0196796
0.0194585
0.0192205
0.0189566
0.0186543
0.0183025
0.0178907
0.0174158
0.0168961
0.0162621
0.0155971
0.0148921
0.0141548
0.0133969
0.0126263
0.0118575
0.0111304
0.0104254
0.020548
0.0207315
0.0210464
0.0212002
0.0212759
0.021284
0.0212125
0.0210722
0.0208843
0.0206133
0.0202636
0.0199282
0.0195648
0.0191843
0.0187929
0.0183903
0.0179731
0.0175364
0.0170742
0.0165819
0.0160584
0.0155032
0.0149226
0.014316
0.0136883
0.0130454
0.0123884
0.0117281
0.0111512
0.0107345
0.0219907
0.0217665
0.0218953
0.0219781
0.0219871
0.0219197
0.0217707
0.0215571
0.0212877
0.0208933
0.020447
0.0199874
0.0194857
0.0189585
0.0184176
0.0178708
0.0173236
0.016779
0.0162377
0.0156985
0.0151595
0.0146249
0.0140912
0.0135553
0.0130172
0.0124771
0.0119279
0.0113722
0.0109393
0.0108578
0.0230812
0.0227091
0.0227556
0.0227677
0.0226932
0.0225384
0.0223034
0.0220038
0.0216374
0.0211274
0.020585
0.0200052
0.0193781
0.0187234
0.0180567
0.0173912
0.0167379
0.0161052
0.0154981
0.0149184
0.0143655
0.0138385
0.0133343
0.0128478
0.0123754
0.0119133
0.0114478
0.0109722
0.0106478
0.0108708
0.0240282
0.0236171
0.0235988
0.0235306
0.0233703
0.023129
0.0228077
0.0224185
0.0219448
0.0213296
0.0206871
0.0199917
0.0192476
0.018477
0.0176983
0.0169286
0.0161831
0.0154736
0.0148081
0.01419
0.0136195
0.013094
0.0126089
0.012158
0.0117352
0.0113341
0.0109359
0.0105264
0.0102924
0.0107883
0.024866
0.0244611
0.0243846
0.0242398
0.0240006
0.0236784
0.0232754
0.0227998
0.0222135
0.0215045
0.020762
0.0199566
0.0191028
0.0182239
0.0173414
0.0164756
0.0156449
0.0148637
0.0141419
0.0134845
0.012892
0.0123614
0.0118869
0.011461
0.0110759
0.0107232
0.01038
0.0100266
0.00987271
0.0106104
0.0256152
0.0252463
0.0251194
0.0249029
0.0245896
0.0241897
0.0237086
0.0231485
0.0224492
0.0216565
0.0208139
0.0199035
0.0189456
0.017965
0.0169853
0.0160296
0.0151187
0.0142693
0.0134928
0.0127953
0.0121776
0.0116365
0.0111654
0.0107556
0.0103983
0.0100834
0.00978411
0.00947775
0.00939489
0.0103406
0.0262976
0.0259862
0.0258152
0.0255299
0.0251445
0.0246696
0.0241131
0.0234641
0.0226605
0.0217867
0.0208451
0.0198339
0.0187769
0.0176996
0.016628
0.0155874
0.0146005
0.0136858
0.0128559
0.0121177
0.0114724
0.0109165
0.0104428
0.010042
0.0097042
0.00941794
0.00915312
0.00888549
0.00886563
0.00998499
0.0269302
0.026691
0.0264803
0.0261276
0.0256721
0.0251257
0.0244931
0.0237471
0.0228538
0.0218955
0.0208575
0.0197494
0.0185969
0.017427
0.0162675
0.0151457
0.0140859
0.013108
0.0122255
0.011446
0.0107709
0.0101967
0.00971556
0.00931763
0.00899245
0.00872713
0.00848864
0.00825269
0.00828906
0.0095496
0.0275254
0.0273685
0.0271218
0.026702
0.0261767
0.0255608
0.0248518
0.0240049
0.0230321
0.0219863
0.0208537
0.0196514
0.0184062
0.0171465
0.0159019
0.0147013
0.0135706
0.0125305
0.0115957
0.010774
0.0100671
0.00947135
0.00897868
0.0085786
0.00826014
0.00800924
0.0077902
0.00757995
0.00766688
0.00903957
0.0280934
0.0280258
0.027746
0.0272589
0.0266636
0.0259803
0.0251915
0.0242453
0.0231974
0.022062
0.020836
0.0195411
0.0182049
0.0168571
0.0155291
0.0142511
0.0130503
0.0119485
0.0109608
0.0100957
0.00935494
0.00873469
0.00822669
0.00782004
0.00750326
0.00726116
0.00705565
0.006866
0.00699862
0.00845856
0.028644
0.0286704
0.0283602
0.027806
0.0271422
0.0263873
0.025511
0.0244777
0.0233513
0.022125
0.0208063
0.0194194
0.0179928
0.0165577
0.0151468
0.0137918
0.0125209
0.0113567
0.0103152
0.00940494
0.00862797
0.00798031
0.00745348
0.00703622
0.00671664
0.00647838
0.00628121
0.00610772
0.00628185
0.00780841
0.0291868
0.0293089
0.028971
0.0283496
0.0276168
0.0267884
0.0258181
0.0247065
0.023496
0.0221777
0.0207662
0.019287
0.0177696
0.0162468
0.0147526
0.0133198
0.0119778
0.01075
0.00965279
0.00869525
0.00787942
0.00720128
0.00665212
0.00622041
0.00589385
0.00565492
0.00546142
0.00530015
0.00551211
0.00708883
0.0297291
0.0299505
0.0295866
0.0288972
0.0280949
0.0271881
0.026122
0.0249345
0.023635
0.0222229
0.0207172
0.0191443
0.0175348
0.0159227
0.0143436
0.0128314
0.0114164
0.0101227
0.0089673
0.00795964
0.00710185
0.00638986
0.00581475
0.00536473
0.00502716
0.00478326
0.00458908
0.00443637
0.00468287
0.00629714
0.0302784
0.0306068
0.0302195
0.0294617
0.0285826
0.0275867
0.026434
0.0251647
0.0237717
0.0222633
0.0206609
0.0189915
0.0172872
0.0155833
0.0139166
0.0123221
0.0108311
0.0094684
0.00825159
0.00719034
0.00628695
0.0055373
0.00493231
0.00445999
0.0041073
0.00385417
0.00365505
0.00350738
0.00378541
0.00542796
0.0308446
0.0312902
0.0308808
0.0300513
0.0290893
0.0279944
0.0267607
0.0254007
0.0239097
0.0223013
0.0205982
0.0188285
0.0170255
0.0152259
0.0134676
0.0117869
0.0102158
0.00878005
0.00749759
0.00637848
0.00542517
0.00463352
0.00399429
0.00349531
0.00312316
0.0028564
0.002648
0.00250177
0.0028085
0.00447289
0.0314447
0.032014
0.0315844
0.0306737
0.0296187
0.0284267
0.0271069
0.025648
0.0240531
0.0223394
0.0205302
0.0186548
0.0167476
0.0148469
0.0129918
0.0112197
0.0095633
0.00804918
0.00669587
0.00551374
0.0045054
0.00366668
0.00298825
0.00245776
0.00206138
0.00177623
0.00155396
0.00140535
0.00173795
0.00341999
0.0321022
0.0327883
0.0323409
0.0313433
0.0301808
0.028895
0.0274774
0.0259116
0.0242062
0.02238
0.0204574
0.018469
0.0164507
0.014442
0.0124832
0.0106128
0.00886454
0.00726561
0.00583511
0.00458375
0.0035143
0.00262262
0.00189925
0.0013317
0.000905718
0.000596902
0.000355654
0.000200388
0.000555928
0.00225311
0.0328361
0.0336325
0.0331681
0.0320728
0.0307933
0.0294083
0.0278812
0.0261988
0.0243736
0.0224254
0.02038
0.0182692
0.0161306
0.014005
0.0119338
0.00995676
0.00810846
0.00641678
0.0049014
0.00357336
0.0024356
0.00148399
0.000708979
9.79388e-05
-0.000363848
-0.000702388
-0.00096841
-0.00113527
-0.000760105
0.000950828
0.033672
0.0345799
0.0340871
0.0328741
0.0314791
0.0299799
0.0283292
0.026518
0.0245604
0.0224778
0.0202972
0.0180521
0.0157816
0.0135277
0.0113334
0.0092392
0.0072808
0.00548674
0.00387719
0.00246355
0.0012489
0.000229118
-0.000605446
-0.00126755
-0.00177242
-0.00214776
-0.00244535
-0.00262969
-0.00223888
-0.000515109
0.0346508
0.0356521
0.0351183
0.0337823
0.0322598
0.0306258
0.0288346
0.0268782
0.0247719
0.0225386
0.0202071
0.0178124
0.0153951
0.0129988
0.0106678
0.00844366
0.00636288
0.00445471
0.00273979
0.00122982
-7.1973e-05
-0.00116976
-0.00207329
-0.00279546
-0.00335208
-0.00377266
-0.00410993
-0.00431895
-0.00391757
-0.00218215
0.0358192
0.036894
0.0363022
0.0348346
0.0331592
0.0313666
0.0294131
0.0272899
0.0250134
0.0226084
0.0201054
0.0175415
0.0149587
0.0124023
0.00991776
0.0075477
0.00532947
0.0032929
0.00145904
-0.000160193
-0.0015615
-0.00274912
-0.00373292
-0.00452601
-0.00514483
-0.0056208
-0.00600758
-0.00625028
-0.00584523
-0.0041006
0.0372449
0.0383662
0.0376991
0.0360721
0.0342108
0.0322294
0.0300843
0.0277653
0.0252901
0.0226856
0.0199846
0.0172261
0.0144539
0.0117148
0.00905561
0.00651985
0.00414559
0.00196309
-6.3278e-06
-0.0017506
-0.00326647
-0.00455829
-0.00563614
-0.00651334
-0.0072071
-0.00775088
-0.00819924
-0.00848698
-0.00808798
-0.00633942
0.0390408
0.0401625
0.0393809
0.0375495
0.0354605
0.0332498
0.0308729
0.0283185
0.0256061
0.0227652
0.019831
0.0168447
0.0138521
0.0109015
0.00804089
0.00531458
0.00276107
0.000410863
-0.00171466
-0.00360348
-0.00525249
-0.00666627
-0.00785515
-0.00883278
-0.00961723
-0.0102441
-0.010769
-0.0111164
-0.0107378
-0.00899612
0.0413341
0.0424064
0.0414475
0.0393504
0.0369749
0.0344771
0.0318115
0.0289665
0.0259637
0.0228358
0.0196208
0.0163623
0.0131084
0.00990878
0.0068122
0.00386352
0.00110128
-0.00144421
-0.00375181
-0.00580983
-0.00761543
-0.00917351
-0.0104947
-0.0115931
-0.0124878
-0.0132165
-0.0138359
-0.0142615
-0.0139247
-0.0122112
0.0443806
0.045292
0.0440548
0.0416021
0.0388534
0.0359827
0.032945
0.029729
0.0263595
0.022873
0.0193109
0.0157198
0.0121495
0.00865088
0.00527308
0.0020606
-0.000948786
-0.00372562
-0.00624959
-0.00850966
-0.0105035
-0.0122361
-0.0137186
-0.0149653
-0.0159962
-0.0168508
-0.0175869
-0.018114
-0.0178524
-0.0162078
0.0485628
0.0491017
0.0474106
0.0444652
0.0412173
0.0378502
0.0343202
0.0306187
0.0267748
0.0228298
0.0188295
0.0148234
0.0108632
0.00700015
0.00328268
-0.000246368
-0.0035513
-0.00660481
-0.00938837
-0.0118922
-0.014115
-0.0160626
-0.0177457
-0.0191788
-0.0203826
-0.0213975
-0.0222807
-0.0229425
-0.0228145
-0.0213242
0.0547527
0.0545446
0.0521085
0.0484624
0.0445089
0.0404205
0.0361659
0.0317503
0.0272146
0.0226096
0.0179885
0.013405
0.00891236
0.0045608
0.000395505
-0.00354487
-0.00722924
-0.0106344
-0.0137445
-0.0165502
-0.0190534
-0.0212731
-0.0232049
-0.0248634
-0.0262697
-0.0274622
-0.0284935
-0.0292896
-0.0293582
-0.0281888
0.0655599
0.063665
0.0596743
0.0547976
0.0496802
0.0444183
0.0390086
0.0334864
0.0279097
0.0223388
0.0168311
0.0114398
0.00621255
0.00119083
-0.00359106
-0.00810573
-0.0123324
-0.0162563
-0.0198693
-0.0231689
-0.0261514
-0.0288046
-0.031154
-0.0332083
-0.0349783
-0.0364898
-0.0377879
-0.0388619
-0.0394162
-0.0388964
0.0178243
0.0187617
0.0205091
0.0218905
0.0230439
0.0241158
0.0251401
0.0261256
0.0270823
0.0280197
0.0289459
0.0298689
0.0307966
0.0317377
0.0327006
0.0336956
0.0347356
0.0358369
0.0370183
0.0383013
0.0397134
0.0412942
0.0430912
0.0451703
0.0476203
0.0505766
0.0542243
0.0587764
0.0644602
0.0717971
0.022144
0.023119
0.0242433
0.0251783
0.0260111
0.0268037
0.0275676
0.028307
0.0290292
0.0297424
0.0304543
0.0311731
0.031907
0.032665
0.0334568
0.0342938
0.0351901
0.0361625
0.0372314
0.0384214
0.0397648
0.041305
0.0430984
0.0452232
0.0477891
0.0509587
0.0549666
0.0601346
0.0669503
0.0760018
0.0244511
0.0253193
0.0261611
0.0269114
0.0276387
0.0283594
0.0290704
0.0297727
0.0304712
0.0311716
0.03188
0.0326032
0.0333483
0.0341236
0.0349386
0.0358048
0.036736
0.0377497
0.0388672
0.0401154
0.0415296
0.0431567
0.0450596
0.0473258
0.0500791
0.0534988
0.0578512
0.0635149
0.0711409
0.0814209
0.0264626
0.0272221
0.0279488
0.0286196
0.0292832
0.0299493
0.0306171
0.0312893
0.0319709
0.0326673
0.0333842
0.0341279
0.0349054
0.0357248
0.0365956
0.0375296
0.038541
0.0396477
0.040872
0.0422424
0.0437965
0.045584
0.0476722
0.0501542
0.0531614
0.0568832
0.0616003
0.0677082
0.0759489
0.08706
0.0283396
0.0290065
0.0296439
0.0302439
0.0308477
0.0314652
0.0320972
0.0327464
0.0334171
0.0341139
0.034842
0.0356073
0.0364168
0.0372787
0.0382027
0.039201
0.0402884
0.0414837
0.0428103
0.0442986
0.045988
0.0479311
0.0501988
0.0528888
0.0561381
0.0601438
0.0651966
0.0717028
0.0804882
0.092348
0.0300535
0.0306385
0.0312001
0.0317408
0.0322975
0.0328792
0.0334864
0.0341213
0.0347875
0.0354893
0.0362315
0.0370198
0.0378609
0.038763
0.0397364
0.0407932
0.0419489
0.043223
0.0446399
0.0462315
0.048039
0.0501173
0.0525404
0.0554095
0.0588669
0.0631159
0.068457
0.0753096
0.0845808
0.0971484
0.0316013
0.0321133
0.0326108
0.0331031
0.0336232
0.0341781
0.0347679
0.0353946
0.0360612
0.0367715
0.0375301
0.0383424
0.039215
0.0401562
0.0411762
0.0422874
0.0435059
0.0448515
0.0463498
0.0480334
0.0499452
0.0521419
0.0546998
0.0577232
0.0613585
0.0658146
0.0714005
0.0785495
0.088235
0.101431
0.0329785
0.0334247
0.0338674
0.0343203
0.0348115
0.0353463
0.0359243
0.0365471
0.0372172
0.037938
0.0387138
0.0395497
0.0404524
0.04143
0.0424928
0.0436537
0.0449287
0.0463383
0.0479087
0.0496735
0.0516767
0.0539765
0.0566509
0.0598069
0.0635939
0.0682253
0.0740182
0.0814176
0.0914424
0.10517
0.0341765
0.0345639
0.03496
0.0353811
0.03585
0.0363699
0.0369402
0.0375619
0.0382372
0.038969
0.0397615
0.0406195
0.0415495
0.0425598
0.0436605
0.0448649
0.0461892
0.0476543
0.0492869
0.0511214
0.0532026
0.0555899
0.0583628
0.0616302
0.065544
0.0703215
0.076286
0.083893
0.0941861
0.108352
0.0351884
0.0355241
0.0358816
0.0362777
0.0367295
0.0372387
0.0378042
0.0384266
0.0391077
0.0398501
0.0406577
0.0415352
0.0424891
0.0435274
0.0446606
0.0459017
0.0472676
0.0487792
0.0504637
0.052356
0.0545018
0.0569611
0.0598148
0.0631731
0.0671901
0.072086
0.0781893
0.085964
0.0964611
0.110982
0.0360113
0.0363031
0.0366298
0.0370067
0.037446
0.0379476
0.0385102
0.0391341
0.0398208
0.0405727
0.0413932
0.0422872
0.0432608
0.0443222
0.0454819
0.046753
0.0481525
0.0497016
0.0514278
0.0533664
0.0555636
0.0580802
0.0609979
0.0644281
0.0685263
0.0735149
0.0797269
0.0876331
0.0982778
0.113081
0.0366473
0.0369038
0.0372069
0.0375699
0.0380001
0.0384965
0.0390576
0.0396833
0.0403749
0.0411345
0.0419654
0.0428724
0.0438615
0.0449409
0.0461212
0.0474155
0.0488408
0.0504187
0.0521768
0.0541508
0.0563871
0.0589472
0.0619133
0.0653977
0.0695571
0.0746154
0.0809087
0.0889139
0.0996583
0.114681
0.0371036
0.0373337
0.0376202
0.0379736
0.0383978
0.0388908
0.0394511
0.0400784
0.0407738
0.0415392
0.0423779
0.0432943
0.0442947
0.0453872
0.0465823
0.0478932
0.0493371
0.0509355
0.0527164
0.0547156
0.0569798
0.0595707
0.0625711
0.0660938
0.0702964
0.0754036
0.0817541
0.089829
0.100633
0.115824
0.0373919
0.0376049
0.0378808
0.0382284
0.038649
0.0391401
0.0397
0.0403286
0.0410265
0.0417957
0.0426394
0.043562
0.0445696
0.0456705
0.046875
0.0481966
0.0496523
0.0512638
0.0530592
0.0550743
0.0573561
0.0599666
0.0629886
0.0665355
0.0707652
0.075903
0.0822895
0.0904081
0.10124
0.116552
0.0375273
0.037732
0.038003
0.0383479
0.0387668
0.0392571
0.039817
0.0404461
0.0411454
0.0419165
0.0427626
0.0436882
0.0446993
0.0458042
0.0470133
0.0483399
0.0498013
0.0514191
0.0532214
0.0552441
0.0575344
0.0601541
0.0631865
0.0667449
0.0709876
0.07614
0.0825435
0.0906828
0.101522
0.116905
0.0375272
0.037732
0.0380029
0.0383478
0.0387668
0.039257
0.0398169
0.0404461
0.0411454
0.0419165
0.0427626
0.0436881
0.0446993
0.0458042
0.0470133
0.0483399
0.0498012
0.0514191
0.0532213
0.0552441
0.0575343
0.0601541
0.0631865
0.0667448
0.0709875
0.0761399
0.0825434
0.0906827
0.101522
0.116905
0.0373918
0.0376048
0.0378808
0.0382283
0.0386489
0.03914
0.0397
0.0403285
0.0410264
0.0417957
0.0426393
0.0435619
0.0445696
0.0456704
0.0468749
0.0481965
0.0496522
0.0512637
0.053059
0.0550741
0.057356
0.0599664
0.0629884
0.0665353
0.070765
0.0759028
0.0822892
0.0904079
0.10124
0.116552
0.0371034
0.0373336
0.03762
0.0379735
0.0383977
0.0388907
0.039451
0.0400783
0.0407737
0.0415391
0.0423777
0.0432942
0.0442946
0.0453871
0.0465821
0.047893
0.0493369
0.0509353
0.0527162
0.0547154
0.0569795
0.0595705
0.0625709
0.0660935
0.0702961
0.0754032
0.0817537
0.0898286
0.100633
0.115823
0.0366471
0.0369036
0.0372067
0.0375697
0.038
0.0384964
0.0390574
0.0396831
0.0403747
0.0411343
0.0419653
0.0428722
0.0438613
0.0449407
0.046121
0.0474152
0.0488405
0.0504184
0.0521765
0.0541505
0.0563868
0.0589469
0.0619129
0.0653973
0.0695567
0.0746148
0.0809081
0.0889132
0.0996575
0.11468
0.0360111
0.0363029
0.0366295
0.0370065
0.0374458
0.0379474
0.0385099
0.0391339
0.0398206
0.0405725
0.041393
0.0422869
0.0432605
0.0443219
0.0454816
0.0467527
0.0481521
0.0497012
0.0514274
0.053366
0.0555632
0.0580798
0.0609974
0.0644275
0.0685257
0.0735142
0.0797261
0.0876323
0.0982768
0.113079
0.0351881
0.0355238
0.0358813
0.0362774
0.0367293
0.0372385
0.0378039
0.0384263
0.0391074
0.0398499
0.0406574
0.0415349
0.0424887
0.0435271
0.0446602
0.0459014
0.0472672
0.0487788
0.0504632
0.0523555
0.0545013
0.0569605
0.0598142
0.0631724
0.0671894
0.0720851
0.0781883
0.085963
0.0964599
0.11098
0.0341761
0.0345635
0.0349597
0.0353808
0.0358496
0.0363696
0.0369399
0.0375615
0.0382368
0.0389687
0.0397611
0.0406191
0.0415491
0.0425594
0.0436601
0.0448644
0.0461887
0.0476538
0.0492864
0.0511208
0.053202
0.0555892
0.0583621
0.0616294
0.0655431
0.0703204
0.0762848
0.0838917
0.0941846
0.10835
0.032978
0.0334243
0.033867
0.0343199
0.0348111
0.0353459
0.035924
0.0365467
0.0372168
0.0379376
0.0387134
0.0395493
0.040452
0.0414296
0.0424924
0.0436532
0.0449281
0.0463377
0.0479081
0.0496729
0.051676
0.0539757
0.0566501
0.059806
0.0635928
0.0682242
0.0740169
0.0814161
0.0914407
0.105168
0.0316008
0.0321128
0.0326103
0.0331027
0.0336227
0.0341776
0.0347675
0.0353942
0.0360608
0.0367711
0.0375297
0.0383419
0.0392145
0.0401557
0.0411756
0.0422869
0.0435053
0.0448509
0.0463491
0.0480326
0.0499444
0.052141
0.0546988
0.0577222
0.0613573
0.0658133
0.0713991
0.0785479
0.088233
0.101428
0.0300529
0.0306379
0.0311996
0.0317403
0.032297
0.0328787
0.0334859
0.0341208
0.0347871
0.0354889
0.036231
0.0370193
0.0378603
0.0387625
0.0397358
0.0407926
0.0419483
0.0432223
0.0446392
0.0462307
0.0480381
0.0501164
0.0525393
0.0554083
0.0588656
0.0631145
0.0684554
0.0753077
0.0845786
0.0971458
0.028339
0.0290059
0.0296433
0.0302433
0.0308471
0.0314647
0.0320967
0.0327459
0.0334166
0.0341134
0.0348415
0.0356068
0.0364163
0.0372781
0.0382021
0.0392003
0.0402878
0.041483
0.0428095
0.0442977
0.0459871
0.0479301
0.0501977
0.0528875
0.0561367
0.0601423
0.0651949
0.0717008
0.0804858
0.0923451
0.0264619
0.0272214
0.0279481
0.028619
0.0292826
0.0299487
0.0306165
0.0312887
0.0319703
0.0326667
0.0333837
0.0341274
0.0349048
0.0357242
0.036595
0.0375289
0.0385403
0.0396469
0.0408711
0.0422415
0.0437955
0.0455829
0.047671
0.0501529
0.0531599
0.0568816
0.0615985
0.0677061
0.0759463
0.0870568
0.0244502
0.0253185
0.0261604
0.0269107
0.027638
0.0283588
0.0290698
0.0297721
0.0304706
0.031171
0.0318795
0.0326026
0.0333477
0.034123
0.034938
0.0358041
0.0367353
0.0377489
0.0388664
0.0401145
0.0415285
0.0431555
0.0450584
0.0473245
0.0500776
0.0534971
0.0578493
0.0635126
0.0711382
0.0814175
0.022143
0.0231181
0.0242424
0.0251775
0.0260104
0.026803
0.0275669
0.0283064
0.0290286
0.0297418
0.0304537
0.0311725
0.0319064
0.0326644
0.0334561
0.0342931
0.0351894
0.0361618
0.0372305
0.0384204
0.0397638
0.0413039
0.0430971
0.0452218
0.0477875
0.050957
0.0549646
0.0601323
0.0669474
0.0759983
0.0178229
0.0187604
0.020508
0.0218895
0.0230429
0.0241149
0.0251392
0.0261248
0.0270815
0.0280189
0.0289452
0.0298681
0.0307959
0.031737
0.0326998
0.0336948
0.0347348
0.0358361
0.0370174
0.0383003
0.0397124
0.0412931
0.04309
0.045169
0.0476188
0.0505749
0.0542224
0.0587741
0.0644574
0.0717935
0.065556
0.0636612
0.0596704
0.0547936
0.0496762
0.0444142
0.0390045
0.0334823
0.0279055
0.0223347
0.016827
0.0114358
0.00620868
0.00118707
-0.00359469
-0.00810921
-0.0123357
-0.0162595
-0.0198723
-0.0231717
-0.026154
-0.028807
-0.0311563
-0.0332104
-0.0349802
-0.0364915
-0.0377895
-0.0388634
-0.0394176
-0.0388977
0.0547496
0.0545415
0.0521054
0.0484592
0.0445056
0.0404171
0.0361625
0.0317468
0.0272111
0.0226062
0.017985
0.0134016
0.00890905
0.00455758
0.000392385
-0.00354787
-0.00723211
-0.0106371
-0.0137471
-0.0165526
-0.0190557
-0.0212752
-0.0232069
-0.0248652
-0.0262715
-0.0274637
-0.028495
-0.0292909
-0.0293595
-0.0281901
0.0485601
0.0490991
0.0474079
0.0444625
0.0412144
0.0378473
0.0343173
0.0306157
0.0267718
0.0228269
0.0188266
0.0148205
0.0108603
0.00699735
0.00327996
-0.000248982
-0.0035538
-0.00660719
-0.00939063
-0.0118943
-0.014117
-0.0160645
-0.0177474
-0.0191804
-0.0203841
-0.0213989
-0.022282
-0.0229437
-0.0228156
-0.0213253
0.0443783
0.0452898
0.0440525
0.0415998
0.038851
0.0359802
0.0329425
0.0297264
0.0263569
0.0228703
0.0193083
0.0157172
0.0121469
0.00864841
0.00527068
0.00205828
-0.000951004
-0.00372773
-0.00625159
-0.00851154
-0.0105052
-0.0122378
-0.0137202
-0.0149668
-0.0159975
-0.0168521
-0.017588
-0.0181151
-0.0178534
-0.0162088
0.0413321
0.0424045
0.0414455
0.0393484
0.0369728
0.0344749
0.0318093
0.0289642
0.0259614
0.0228335
0.0196185
0.01636
0.0131061
0.00990657
0.00681005
0.00386145
0.00109929
-0.0014461
-0.0037536
-0.00581151
-0.007617
-0.00917497
-0.0104961
-0.0115944
-0.0124889
-0.0132176
-0.0138369
-0.0142624
-0.0139256
-0.0122121
0.0390391
0.0401607
0.0393792
0.0375477
0.0354586
0.0332479
0.0308709
0.0283165
0.025604
0.0227631
0.0198289
0.0168426
0.01385
0.0108995
0.00803896
0.00531272
0.00275929
0.000409166
-0.00171626
-0.00360499
-0.0052539
-0.00666758
-0.00785637
-0.00883391
-0.00961827
-0.0102451
-0.0107699
-0.0111172
-0.0107385
-0.00899693
0.0372434
0.0383647
0.0376975
0.0360704
0.0342091
0.0322277
0.0300825
0.0277635
0.0252882
0.0226837
0.0199827
0.0172242
0.014452
0.011713
0.00905385
0.00651816
0.00414397
0.00196155
-7.7787e-06
-0.00175197
-0.00326775
-0.00455948
-0.00563724
-0.00651436
-0.00720804
-0.00775174
-0.00820003
-0.00848771
-0.00808867
-0.00634014
0.0358178
0.0368926
0.0363007
0.0348331
0.0331577
0.031365
0.0294114
0.0272882
0.0250117
0.0226067
0.0201037
0.0175398
0.014957
0.0124007
0.00991616
0.00754615
0.005328
0.0032915
0.00145772
-0.000161432
-0.00156266
-0.00275019
-0.00373392
-0.00452693
-0.00514568
-0.00562158
-0.0060083
-0.00625094
-0.00584585
-0.00410124
0.0346496
0.0356508
0.035117
0.0337809
0.0322584
0.0306243
0.0288331
0.0268767
0.0247704
0.0225371
0.0202055
0.0178108
0.0153935
0.0129973
0.0106664
0.00844224
0.00636153
0.00445343
0.00273858
0.00122869
-7.30281e-05
-0.00117074
-0.00207419
-0.0027963
-0.00335285
-0.00377337
-0.00411058
-0.00431955
-0.00391814
-0.00218273
0.0336709
0.0345788
0.0340859
0.0328728
0.0314778
0.0299785
0.0283279
0.0265166
0.024559
0.0224764
0.0202958
0.0180507
0.0157801
0.0135263
0.011332
0.0092379
0.00727956
0.00548556
0.00387608
0.00246251
0.00124793
0.00022822
-0.000606276
-0.00126831
-0.00177312
-0.00214841
-0.00244595
-0.00263025
-0.0022394
-0.000515637
0.0328351
0.0336315
0.033167
0.0320716
0.0307921
0.0294071
0.0278799
0.0261975
0.0243723
0.0224241
0.0203787
0.0182679
0.0161293
0.0140037
0.0119326
0.00995556
0.00810731
0.0064157
0.00490037
0.0035724
0.00243471
0.00148316
0.000708213
9.72317e-05
-0.0003645
-0.00070299
-0.000968966
-0.00113578
-0.000760591
0.000950346
0.0321013
0.0327874
0.0323399
0.0313423
0.0301797
0.0288939
0.0274763
0.0259104
0.024205
0.0223788
0.0204562
0.0184678
0.0164495
0.0144408
0.0124821
0.0106117
0.00886348
0.0072646
0.00583416
0.00458286
0.00351347
0.00262185
0.00189854
0.00133104
0.000905112
0.000596341
0.000355134
0.000199905
0.000555472
0.00225267
0.0314438
0.0320131
0.0315834
0.0306727
0.0296177
0.0284256
0.0271058
0.0256469
0.024052
0.0223383
0.0205291
0.0186536
0.0167465
0.0148458
0.0129908
0.0112186
0.00956231
0.00804824
0.00669498
0.00551292
0.00450463
0.00366597
0.00298759
0.00245715
0.00206081
0.00177571
0.00155347
0.00140489
0.00173752
0.00341958
0.0308439
0.0312893
0.0308799
0.0300504
0.0290884
0.0279934
0.0267597
0.0253997
0.0239087
0.0223002
0.0205972
0.0188275
0.0170244
0.0152249
0.0134666
0.011786
0.0102149
0.00877918
0.00749677
0.00637771
0.00542445
0.00463285
0.00399367
0.00349474
0.00312263
0.0028559
0.00264753
0.00250134
0.00280809
0.0044725
0.0302777
0.0306061
0.0302187
0.0294608
0.0285818
0.0275858
0.0264331
0.0251637
0.0237707
0.0222623
0.0206599
0.0189905
0.0172862
0.0155824
0.0139156
0.0123212
0.0108302
0.00946759
0.00825082
0.00718962
0.00628628
0.00553667
0.00493173
0.00445945
0.0041068
0.0038537
0.0036546
0.00350696
0.00378502
0.0054276
0.0297285
0.0299498
0.0295858
0.0288964
0.0280941
0.0271873
0.0261211
0.0249336
0.0236341
0.022222
0.0207163
0.0191434
0.0175339
0.0159218
0.0143427
0.0128306
0.0114156
0.0101219
0.00896658
0.00795897
0.00710123
0.00638928
0.0058142
0.00536422
0.00502669
0.00478282
0.00458865
0.00443596
0.00468249
0.0062968
0.0291862
0.0293081
0.0289703
0.0283488
0.027616
0.0267876
0.0258173
0.0247057
0.0234952
0.0221768
0.0207653
0.0192861
0.0177688
0.016246
0.0147517
0.0133191
0.0119771
0.0107493
0.00965212
0.00869462
0.00787883
0.00720073
0.00665161
0.00621992
0.0058934
0.00565449
0.00546101
0.00529975
0.00551173
0.00708851
0.0286434
0.0286697
0.0283595
0.0278053
0.0271415
0.0263865
0.0255103
0.0244769
0.0233505
0.0221242
0.0208055
0.0194186
0.017992
0.0165569
0.015146
0.0137911
0.0125202
0.0113561
0.0103145
0.00940435
0.00862742
0.0079798
0.00745299
0.00703576
0.0067162
0.00647796
0.00628081
0.00610733
0.00628148
0.0078081
0.0280929
0.0280251
0.0277453
0.0272582
0.0266629
0.0259796
0.0251907
0.0242445
0.0231966
0.0220613
0.0208353
0.0195404
0.0182041
0.0168564
0.0155284
0.0142505
0.0130497
0.0119479
0.0109602
0.0100952
0.00935443
0.0087342
0.00822623
0.0078196
0.00750284
0.00726076
0.00705526
0.00686561
0.00699825
0.00845825
0.0275249
0.0273678
0.0271211
0.0267014
0.026176
0.0255601
0.0248511
0.0240042
0.0230314
0.0219856
0.020853
0.0196507
0.0184055
0.0171458
0.0159013
0.0147007
0.01357
0.01253
0.0115951
0.0107735
0.0100667
0.00947089
0.00897824
0.00857818
0.00825974
0.00800884
0.00778982
0.00757957
0.0076665
0.00903926
0.0269296
0.0266904
0.0264797
0.0261269
0.0256714
0.025125
0.0244924
0.0237464
0.0228531
0.0218948
0.0208568
0.0197487
0.0185963
0.0174264
0.0162669
0.0151451
0.0140854
0.0131074
0.012225
0.0114455
0.0107705
0.0101962
0.00971515
0.00931723
0.00899205
0.00872674
0.00848826
0.00825231
0.00828868
0.00954928
0.026297
0.0259856
0.0258145
0.0255292
0.0251439
0.024669
0.0241125
0.0234634
0.0226598
0.021786
0.0208445
0.0198333
0.0187763
0.017699
0.0166274
0.0155868
0.0146
0.0136853
0.0128555
0.0121173
0.011472
0.0109161
0.0104424
0.0100416
0.00970382
0.00941756
0.00915273
0.0088851
0.00886524
0.00998466
0.0256146
0.0252456
0.0251187
0.0249023
0.0245889
0.024189
0.023708
0.0231479
0.0224486
0.0216559
0.0208133
0.019903
0.0189451
0.0179645
0.0169847
0.0160291
0.0151182
0.0142688
0.0134924
0.0127948
0.0121772
0.0116361
0.011165
0.0107552
0.0103979
0.010083
0.00978372
0.00947735
0.00939448
0.0103403
0.0248654
0.0244603
0.0243839
0.0242391
0.024
0.0236778
0.0232748
0.0227992
0.0222129
0.021504
0.0207614
0.0199561
0.0191023
0.0182235
0.0173409
0.0164752
0.0156445
0.0148633
0.0141415
0.0134841
0.0128917
0.0123611
0.0118866
0.0114606
0.0110755
0.0107228
0.0103796
0.0100262
0.00987229
0.01061
0.0240275
0.0236163
0.0235981
0.0235299
0.0233697
0.0231283
0.0228071
0.0224179
0.0219442
0.0213291
0.0206866
0.0199912
0.0192472
0.0184766
0.0176978
0.0169282
0.0161827
0.0154733
0.0148077
0.0141897
0.0136192
0.0130937
0.0126086
0.0121576
0.0117348
0.0113337
0.0109355
0.010526
0.010292
0.0107879
0.0230804
0.0227083
0.0227548
0.0227669
0.0226926
0.0225378
0.0223028
0.0220032
0.0216369
0.0211269
0.0205845
0.0200048
0.0193776
0.018723
0.0180564
0.0173908
0.0167376
0.0161048
0.0154978
0.0149181
0.0143652
0.0138382
0.0133339
0.0128475
0.012375
0.0119129
0.0114474
0.0109718
0.0106473
0.0108704
0.0219899
0.0217657
0.0218945
0.0219773
0.0219864
0.021919
0.0217701
0.0215565
0.0212872
0.0208929
0.0204465
0.019987
0.0194853
0.0189581
0.0184173
0.0178705
0.0173234
0.0167787
0.0162374
0.0156982
0.0151593
0.0146247
0.0140909
0.013555
0.0130168
0.0124767
0.0119275
0.0113717
0.0109388
0.0108573
0.0205469
0.0207306
0.0210455
0.0211994
0.0212752
0.0212833
0.0212119
0.0210716
0.0208838
0.0206129
0.0202632
0.0199278
0.0195645
0.0191841
0.0187927
0.01839
0.0179729
0.0175361
0.017074
0.0165817
0.0160582
0.0155029
0.0149223
0.0143157
0.0136879
0.013045
0.0123879
0.0117276
0.0111507
0.0107339
0.0180662
0.018862
0.0196618
0.0200627
0.0202916
0.0204329
0.0204887
0.0204683
0.0204002
0.020282
0.0200721
0.0198849
0.0196793
0.0194583
0.0192203
0.0189564
0.0186541
0.0183024
0.0178905
0.0174156
0.0168957
0.0162619
0.0155968
0.0148917
0.0141544
0.0133964
0.0126258
0.0118569
0.0111297
0.0104247
0.0141561
0.0147489
0.0162173
0.0173024
0.0180889
0.0187139
0.0192037
0.0195697
0.0198396
0.020024
0.0200859
0.0200995
0.0200367
0.0198936
0.019669
0.0193592
0.0189611
0.0184779
0.0179125
0.0172652
0.0165302
0.0158125
0.0150568
0.0142783
0.013497
0.0127256
0.0119739
0.0112562
0.0105826
0.00989969
-0.0405741
-0.0326316
-0.0266342
-0.0217641
-0.0177442
-0.0143976
-0.0115745
-0.00916542
-0.00708731
-0.00527691
-0.00368556
-0.0022753
-0.00101611
0.000116048
0.00114067
0.00207371
0.00292831
0.00371527
0.00444334
0.00511937
0.00574832
0.00633316
0.00687479
0.00737188
0.00782053
0.00821242
0.00853758
0.00879355
0.00898183
0.00902782
-0.0407252
-0.0326555
-0.0263634
-0.0213633
-0.0172675
-0.0138657