/*--------------------------------*- C++ -*----------------------------------*\
  =========                 |
  \\      /  F ield         | OpenFOAM: The Open Source CFD Toolbox
   \\    /   O peration     | Website:  https://openfoam.org
    \\  /    A nd           | Version:  12
     \\/     M anipulation  |
\*---------------------------------------------------------------------------*/
FoamFile
{
    format      ascii;
    class       surfaceScalarField;
    location    "200";
    object      phi;
}
// * * * * * * * * * * * * * * * * * * * * * * * * * * * * * * * * * * * * * //

dimensions      [0 3 -1 0 0 0 0];

internalField   nonuniform List<scalar> 
13275
(
0.369023
-0.00462565
0.369481
-0.0114849
0.369794
-0.0154055
0.369909
-0.0173599
-0.0180299
0.369848
0.351098
-0.00489873
0.35146
-0.0118469
0.351681
-0.0156264
0.351642
-0.017321
-0.0176323
0.351245
0.334002
-0.00502161
0.334077
-0.0119226
0.333968
-0.0155172
0.333634
-0.0169869
-0.0170937
0.333095
0.317721
-0.00499218
0.317511
-0.0117118
0.317103
-0.0151094
0.316533
-0.0164167
-0.0164193
0.315858
0.302245
-0.00483538
0.30179
-0.0112567
0.301125
-0.0144442
0.300336
-0.0156279
-0.0155824
0.299499
0.287534
-0.00457517
0.286872
-0.0105948
0.285978
-0.0135501
0.284977
-0.0146268
-0.0145633
0.283958
0.273546
-0.00422887
0.272706
-0.00975492
0.271606
-0.01245
0.270403
-0.0134232
-0.0133575
0.269197
0.260244
-0.00381018
0.259251
-0.00876274
0.25797
-0.0111688
0.256582
-0.0120347
-0.0119749
0.255199
0.247593
-0.00333223
0.246476
-0.00764533
0.245043
-0.00973606
0.243497
-0.0104884
-0.0104381
0.24196
0.235564
-0.00280877
0.234351
-0.0064323
0.232802
-0.00818694
0.231133
-0.0088193
-0.00877936
0.229475
0.224129
-0.00225416
0.222852
-0.00515505
0.221225
-0.00655967
0.219472
-0.00706693
-0.00703699
0.21773
0.213259
-0.00168287
0.211949
-0.00384497
0.210283
-0.00489313
0.208488
-0.00527227
-0.00525124
0.206702
0.202927
-0.00110875
0.201614
-0.00253158
0.199945
-0.00322407
0.198147
-0.0034743
-0.00346091
0.196357
0.193107
-0.000544397
0.191817
-0.00124133
0.190177
-0.00158476
0.18841
-0.0017073
-0.00170058
0.18665
0.183771
2.30156e-07
0.182529
5.82778e-07
0.180944
7.89933e-07
0.179236
8.82773e-07
9.00569e-07
0.177534
0.183771
0.000544859
0.182529
0.0012425
0.180944
0.00158634
0.179236
0.00170906
0.00170238
0.177534
0.193107
0.00110921
0.191817
0.00253274
0.190177
0.00322564
0.18841
0.00347606
0.00346271
0.18665
0.202927
0.00168332
0.201614
0.00384614
0.199945
0.0048947
0.198147
0.00527402
0.00525303
0.196357
0.213259
0.00225462
0.211949
0.00515621
0.210283
0.00656124
0.208488
0.00706868
0.00703877
0.206702
0.224129
0.00280922
0.222852
0.00643346
0.221225
0.00818849
0.219472
0.00882103
0.00878113
0.21773
0.235564
0.00333268
0.234351
0.00764648
0.232802
0.00973761
0.231133
0.0104901
0.0104398
0.229475
0.247593
0.00381063
0.246476
0.00876388
0.245043
0.0111703
0.243497
0.0120364
0.0119766
0.24196
0.260244
0.00422931
0.259251
0.00975605
0.25797
0.0124515
0.256582
0.0134249
0.0133592
0.255199
0.273546
0.00457561
0.272706
0.010596
0.271606
0.0135516
0.270403
0.0146285
0.0145651
0.269197
0.287534
0.00483582
0.286872
0.0112579
0.285978
0.0144457
0.284977
0.0156296
0.0155841
0.283958
0.302245
0.00499261
0.30179
0.011713
0.301125
0.0151109
0.300336
0.0164184
0.016421
0.299499
0.317721
0.00502204
0.317511
0.0119237
0.317103
0.0155187
0.316533
0.0169886
0.0170955
0.315858
0.334002
0.00489915
0.334077
0.011848
0.333968
0.0156279
0.333634
0.0173228
0.0176341
0.333095
0.351098
0.00462606
0.35146
0.011486
0.351681
0.0154071
0.351642
0.0173617
0.0180318
0.351245
0.369023
0.369481
0.369794
0.369909
0.369848
0.197356
-0.0505297
-0.197396
0.196943
-0.0577702
0.195918
-0.0640414
0.194264
-0.0695588
0.192034
-0.074287
0.189302
-0.0781605
0.186137
-0.0810884
0.182617
-0.0829476
0.178829
-0.0835939
0.174887
-0.0829781
0.170876
-0.0809039
0.166951
-0.0772335
0.163258
-0.0720504
0.159939
-0.0654452
0.157127
-0.057596
0.154926
-0.0487585
0.153408
-0.0392444
0.152606
-0.0293917
0.152513
-0.019536
0.153091
-0.00998541
0.15425
-0.000968201
0.155952
0.0073022
0.158087
0.0147384
0.160563
0.0212474
0.163292
0.0268099
0.166194
0.0314454
0.1692
0.0351999
0.172248
0.038135
0.175279
0.0403213
0.0418247
0.178202
0.194725
-0.0506487
-0.194606
0.194061
-0.0571061
0.192707
-0.0626875
0.190763
-0.0676145
0.188306
-0.0718301
0.185408
-0.0752633
0.182138
-0.0778177
0.178563
-0.0793731
0.17477
-0.0798008
0.170855
-0.0790633
0.166898
-0.076947
0.163047
-0.0733821
0.159433
-0.0684368
0.156188
-0.0621996
0.153429
-0.0548369
0.151252
-0.0465824
0.149725
-0.0377175
0.14888
-0.0285462
0.148713
-0.0193688
0.149185
-0.0104573
0.150253
-0.00203682
0.151828
0.00572746
0.153842
0.0127245
0.156206
0.0188835
0.158836
0.02418
0.161655
0.0286262
0.164596
0.0322587
0.167602
0.0351289
0.170617
0.0373068
0.0389255
0.173516
0.191408
-0.0503896
-0.191667
0.190441
-0.056139
0.188873
-0.0611199
0.186784
-0.0655253
0.184239
-0.0692857
0.181299
-0.0723229
0.17802
-0.0745388
0.174467
-0.0758201
0.170725
-0.0760588
0.166872
-0.0752106
0.162993
-0.0730675
0.159224
-0.069613
0.155687
-0.0648996
0.152502
-0.059015
0.14978
-0.0521152
0.147612
-0.0444141
0.146061
-0.0361663
0.14516
-0.0276449
0.144909
-0.0191182
0.145281
-0.0108292
0.146225
-0.00298082
0.147675
0.00427733
0.149559
0.0108404
0.151797
0.0166453
0.15431
0.0216673
0.157023
0.0259135
0.159869
0.0294126
0.162792
0.0322061
0.16574
0.0343586
0.0360731
0.168592
0.18798
-0.0497891
-0.188581
0.186756
-0.0549148
0.185006
-0.0593699
0.182791
-0.0633096
0.180166
-0.0666607
0.177184
-0.069341
0.173898
-0.0712533
0.170368
-0.0722897
0.166679
-0.07237
0.16289
-0.071422
0.159093
-0.0692705
0.155409
-0.065929
0.151949
-0.0614394
0.148823
-0.0558887
0.146132
-0.0494239
0.143959
-0.0422418
0.142367
-0.0345737
0.141388
-0.0266657
0.141027
-0.0187579
0.141265
-0.0110673
0.142059
-0.00377444
0.143352
0.00298401
0.145079
0.00911373
0.147167
0.0145578
0.149541
0.0192926
0.152132
0.0233224
0.154875
0.0266702
0.157713
0.0293684
0.160597
0.0314739
0.0332563
0.163414
0.184472
-0.0488968
-0.185365
0.183023
-0.0534656
0.181105
-0.0574519
0.178771
-0.0609752
0.176069
-0.0639592
0.173048
-0.0663198
0.169757
-0.0679621
0.166252
-0.0687852
0.162614
-0.068732
0.158889
-0.0676964
0.155172
-0.0655539
0.15157
-0.0623265
0.148182
-0.058052
0.14511
-0.0528165
0.142445
-0.0467586
0.140264
-0.0400609
0.138625
-0.0329346
0.137561
-0.0256023
0.137083
-0.0182795
0.137176
-0.0111598
0.137805
-0.00440422
0.138924
0.00186498
0.140475
0.00756355
0.142391
0.012641
0.144607
0.0170763
0.147057
0.0208725
0.149679
0.0240486
0.152417
0.0266298
0.155227
0.0286644
0.0304789
0.158004
0.180852
-0.0477415
-0.182007
0.179199
-0.0518121
0.177129
-0.0553823
0.174689
-0.0585352
0.171922
-0.0611916
0.168869
-0.0632671
0.165578
-0.0646708
0.162103
-0.0653104
0.158512
-0.0651411
0.154848
-0.0640329
0.151207
-0.0619131
0.147681
-0.0588003
0.144361
-0.0547324
0.141339
-0.0497941
0.138698
-0.0441172
0.136508
-0.0378716
0.134825
-0.0312511
0.13368
-0.0244579
0.133087
-0.0176861
0.133036
-0.0111088
0.133501
-0.00486906
0.134441
0.000924609
0.135807
0.00619787
0.137541
0.0109069
0.139584
0.0150337
0.141874
0.0185816
0.144356
0.0215671
0.146975
0.0240104
0.149688
0.0259515
0.0277591
0.152408
0.1771
-0.0463478
-0.178493
0.175263
-0.0499756
0.17306
-0.0531797
0.170529
-0.0560043
0.167707
-0.0583691
0.164631
-0.060191
0.161344
-0.0613844
0.157902
-0.0618677
0.154354
-0.0615937
0.150751
-0.06043
0.147181
-0.0583429
0.143726
-0.0553449
0.140469
-0.0514756
0.137494
-0.0468187
0.134876
-0.0414995
0.132681
-0.0356767
0.130959
-0.0295291
0.129742
-0.0232408
0.129043
-0.0169872
0.128858
-0.0109233
0.129165
-0.00517607
0.129931
0.000158772
0.131112
0.00501638
0.13266
0.00935937
0.13452
0.0131734
0.136639
0.0164627
0.138964
0.0192423
0.141445
0.0215294
0.144039
0.0233573
0.0251206
0.146677
0.173205
-0.0447418
-0.174811
0.171209
-0.0479792
0.168891
-0.0508619
0.166283
-0.0533963
0.163416
-0.0555017
0.160323
-0.0570985
0.157045
-0.058106
0.153634
-0.0584571
0.150128
-0.0580875
0.146584
-0.0568857
0.14308
-0.0548387
0.13969
-0.0519556
0.136493
-0.0482782
0.133563
-0.0438887
0.13097
-0.0389069
0.128775
-0.0334812
0.127022
-0.0277768
0.125744
-0.021962
0.124952
-0.0161956
0.124645
-0.0106165
0.124807
-0.00533742
0.125408
-0.000442384
0.126412
0.00401257
0.127775
0.00799615
0.129451
0.0114977
0.131391
0.0145227
0.133547
0.0170859
0.135874
0.0192024
0.13833
0.0209011
0.0225868
0.140864
0.169164
-0.042951
-0.170955
0.167031
-0.0458455
0.164615
-0.0484462
0.161942
-0.0507235
0.159039
-0.0525985
0.155936
-0.0539956
0.152669
-0.0548389
0.149288
-0.0550761
0.145822
-0.0546221
0.142334
-0.0533977
0.138892
-0.0513967
0.135566
-0.0486287
0.132425
-0.0451375
0.12954
-0.0410039
0.126975
-0.036342
0.124785
-0.0312909
0.123012
-0.0260035
0.121683
-0.0206339
0.120814
-0.0153258
0.120401
-0.0102039
0.120432
-0.00536834
0.120882
-0.000892554
0.121719
0.00317538
0.122906
0.00680977
0.1244
0.0100034
0.126159
0.0127634
0.128141
0.0151043
0.130303
0.0170404
0.132606
0.0185978
0.0201788
0.135014
0.164972
-0.0410021
-0.166921
0.162722
-0.043596
0.160224
-0.0459483
0.157498
-0.0479974
0.154567
-0.0496671
0.151458
-0.0508869
0.148207
-0.0515877
0.144854
-0.0517228
0.141429
-0.0511974
0.137994
-0.0499631
0.134611
-0.0480138
0.131345
-0.0453619
0.12826
-0.0420527
0.125421
-0.0381653
0.122888
-0.0338085
0.120709
-0.0291126
0.118925
-0.0242191
0.11756
-0.0192691
0.116627
-0.0143927
0.116125
-0.00970201
0.116042
-0.00528561
0.116358
-0.00120773
0.117042
0.00249069
0.118063
0.00578897
0.119383
0.00868299
0.120965
0.0111814
0.122771
0.0132988
0.124762
0.0150494
0.126902
0.0164578
0.0179132
0.129168
0.160624
-0.0389203
-0.162706
0.158279
-0.0412504
0.155713
-0.0433827
0.152944
-0.0452284
0.149992
-0.0467149
0.146882
-0.0477768
0.143649
-0.0483548
0.140323
-0.0483963
0.136939
-0.0478141
0.133557
-0.0465803
0.130231
-0.0446883
0.127023
-0.0421539
0.123994
-0.0390237
0.121204
-0.0353748
0.118706
-0.0313108
0.116547
-0.0269535
0.114761
-0.0224337
0.113373
-0.0178803
0.112391
-0.0134115
0.111817
-0.00912734
0.111638
-0.00510653
0.111835
-0.001405
0.112383
0.00194258
0.113252
0.0049199
0.11441
0.00752554
0.115822
0.00976939
0.117454
0.0116664
0.119273
0.0132305
0.121245
0.0144861
0.0158019
0.123356
0.156118
-0.036729
-0.158309
0.153694
-0.0388269
0.151075
-0.0407629
0.148273
-0.0424266
0.145307
-0.0437491
0.1422
-0.0446698
0.138986
-0.0451409
0.135688
-0.0450979
0.132347
-0.0444732
0.129015
-0.0432489
0.125747
-0.0414198
0.122598
-0.039005
0.119626
-0.0360519
0.116887
-0.0326355
0.11443
-0.028854
0.112298
-0.024821
0.110521
-0.0206572
0.109121
-0.0164801
0.108106
-0.0123965
0.107474
-0.00849601
0.107216
-0.00484822
0.107313
-0.00150172
0.107741
0.00151427
0.108474
0.00418718
0.109482
0.00651783
0.110734
0.00851707
0.1122
0.0101999
0.11385
0.0115805
0.115653
0.0126833
0.0138517
0.117603
0.151448
-0.0344498
-0.153727
0.148962
-0.0363415
0.1463
-0.038101
0.143475
-0.0396008
0.140502
-0.0407761
0.137404
-0.041572
0.13421
-0.0419473
0.130942
-0.0418302
0.127645
-0.0411759
0.124366
-0.0399695
0.121155
-0.038209
0.118066
-0.0359164
0.115154
-0.0331397
0.11247
-0.0299513
0.11006
-0.0264437
0.107961
-0.0227228
0.106204
-0.0188993
0.104804
-0.0150801
0.103769
-0.0113614
0.103096
-0.00782336
0.102775
-0.00452712
0.102788
-0.00151487
0.103113
0.0011889
0.103726
0.00357475
0.104598
0.00564527
0.105703
0.00741196
0.107014
0.00888974
0.108501
0.0100929
0.110138
0.0110461
0.0120646
0.111925
0.146608
-0.0321021
-0.148956
0.144075
-0.0338087
0.141382
-0.0354084
0.138542
-0.03676
0.135568
-0.0378026
0.132485
-0.038489
0.129313
-0.0387758
0.12608
-0.0385969
0.122829
-0.0379242
0.119603
-0.0367439
0.116452
-0.035058
0.113426
-0.0328909
0.110577
-0.0302906
0.107953
-0.0273266
0.105595
-0.0240859
0.103538
-0.0206665
0.101809
-0.0171693
0.10042
-0.0136915
0.0993778
-0.0103193
0.0986782
-0.00712372
0.0983098
-0.00415873
0.0982556
-0.00146068
0.0984944
0.000950024
0.0990027
0.0030665
0.0997553
0.00489267
0.100727
0.00644035
0.101892
0.00772417
0.103227
0.00875844
0.104705
0.00956796
0.0104386
0.106331
0.14159
-0.029703
-0.143989
0.139023
-0.0312418
0.136311
-0.0326965
0.133465
-0.0339134
0.130497
-0.0348354
0.127433
-0.0354245
0.124288
-0.0356305
0.121093
-0.0354027
0.117891
-0.0347214
0.114722
-0.0335752
0.111634
-0.0319699
0.108675
-0.029932
0.105893
-0.0275088
0.103333
-0.0247668
0.101034
-0.021787
0.0990276
-0.0186596
0.0973347
-0.0154765
0.0959681
-0.0123249
0.0949307
-0.0092819
0.0942174
-0.00641039
0.0938161
-0.00375745
0.0937098
-0.00135436
0.0938779
0.000781961
0.0942976
0.00264673
0.0949455
0.00424478
0.0957979
0.00558792
0.0968318
0.00669031
0.0980242
0.00756606
0.0993523
0.00823986
0.00896842
0.100823
0.136383
-0.0272678
-0.138818
0.133796
-0.0286546
0.131076
-0.0299761
0.128232
-0.0310696
0.125279
-0.0318829
0.122238
-0.032383
0.119124
-0.0325171
0.115974
-0.0322525
0.112825
-0.0315718
0.109717
-0.0304676
0.106696
-0.0289492
0.103809
-0.0270444
0.101099
-0.0247996
0.0986103
-0.0222776
0.0963769
-0.0195536
0.0944271
-0.0167098
0.0927799
-0.0138293
0.0914451
-0.01099
0.0904235
-0.00826037
0.0897087
-0.00569555
0.0892878
-0.00333651
0.0891434
-0.00121
0.0892553
0.000670061
0.0896015
0.00230052
0.0901595
0.00368679
0.090907
0.00484039
0.0918225
0.00577477
0.0928849
0.00650366
0.0940735
0.00705131
0.00764615
0.0953958
0.130974
-0.024811
-0.133431
0.12838
-0.0260606
0.125663
-0.0272586
0.122831
-0.0282373
0.119901
-0.0289529
0.116887
-0.0293698
0.113813
-0.0294433
0.110713
-0.029152
0.107622
-0.0284808
0.104581
-0.0274266
0.101633
-0.0260014
0.0988226
-0.0242338
0.0961919
-0.0221689
0.0937797
-0.0198654
0.0916186
-0.0173925
0.0897334
-0.0148246
0.0881402
-0.0122361
0.0868463
-0.00969617
0.0858508
-0.00726484
0.0851456
-0.00499033
0.084717
-0.00290796
0.0845475
-0.00104045
0.0846167
0.000600821
0.0849033
0.00201398
0.0853854
0.00320466
0.0860419
0.00418386
0.0868525
0.00496417
0.0877975
0.00555869
0.0888579
0.0059909
0.00646238
0.0900417
0.125348
-0.0223472
-0.127811
0.12276
-0.0234734
0.120056
-0.0245546
0.117246
-0.0254269
0.114346
-0.0260526
0.111368
-0.0263925
0.108342
-0.0264168
0.105298
-0.0261082
0.102273
-0.0254554
0.0993049
-0.0244588
0.0964366
-0.023133
0.0937096
-0.0215069
0.091164
-0.0196233
0.0888356
-0.017537
0.0867539
-0.0153108
0.0849408
-0.0130115
0.0834096
-0.0107049
0.0821653
-0.00845187
0.0812051
-0.00630462
0.0805196
-0.00430482
0.0800943
-0.00248269
0.0799112
-0.000857345
0.07995
0.000561972
0.0801897
0.00177432
0.080609
0.00278532
0.0811877
0.00360521
0.0819063
0.00424557
0.0827463
0.0047187
0.0836903
0.00504693
0.00540674
0.0847459
0.119483
-0.0198921
-0.121938
0.116915
-0.0209054
0.114236
-0.0218754
0.111458
-0.0226492
0.108595
-0.0231894
0.105664
-0.0234615
0.102694
-0.0234464
0.0997151
-0.0231296
0.0967633
-0.0225036
0.0938768
-0.0215723
0.0910956
-0.0203519
0.0884598
-0.0188711
0.0860068
-0.0171703
0.0837695
-0.0152998
0.0817746
-0.0133159
0.080041
-0.0112779
0.0785794
-0.00924338
0.0773928
-0.00726518
0.0764764
-0.00538825
0.0758197
-0.00364814
0.0754074
-0.00207042
0.0752212
-0.000671066
0.0752406
0.000542514
0.0754449
0.00157003
0.0758134
0.00241686
0.0763263
0.00309232
0.076965
0.00360683
0.077712
0.00397176
0.078551
0.00420792
0.00446854
0.0794892
0.113355
-0.0174617
-0.115786
0.110819
-0.0183693
0.108177
-0.0192332
0.105442
-0.0199144
0.102627
-0.020374
0.0997532
-0.0205881
0.0968492
-0.0205425
0.0939455
-0.0202259
0.0910768
-0.0196349
0.0882807
-0.0187761
0.0855957
-0.0176668
0.0830596
-0.016335
0.0807073
-0.0148181
0.0785691
-0.0131615
0.0766685
-0.0114153
0.0750218
-0.00963118
0.0736373
-0.00785893
0.0725158
-0.00614366
0.0716511
-0.00452352
0.0710314
-0.00302846
0.0706408
-0.00167982
0.0704605
-0.000490788
0.0704703
0.000532739
0.0706494
0.0013909
0.0709777
0.00208864
0.0714357
0.00263423
0.0720057
0.00303686
0.0726707
0.00330677
0.0734156
0.00346302
0.00363739
0.0742467
0.106928
-0.0150723
-0.109317
0.104437
-0.0158788
0.101846
-0.016642
0.0991657
-0.0172339
0.0964117
-0.01762
0.0936082
-0.0177846
0.0907823
-0.0177166
0.087965
-0.0174085
0.0851905
-0.0168605
0.0824955
-0.0160811
0.0799167
-0.0150881
0.07749
-0.0139082
0.0752476
-0.0125757
0.0732168
-0.0111307
0.0714185
-0.00961705
0.0698663
-0.00807899
0.0685662
-0.00655882
0.0675169
-0.0050944
0.066711
-0.00371756
0.0661356
-0.00245306
0.0657742
-0.00131846
0.0656079
-0.000324471
0.0656164
0.000524255
0.0657792
0.00122809
0.0660764
0.00179141
0.0664893
0.00222136
0.0670003
0.00252582
0.0675933
0.00271382
0.0682539
0.00280239
0.00290365
0.0689877
0.100155
-0.0127415
-0.102485
0.0977268
-0.0134509
0.0952014
-0.0141166
0.0925899
-0.0146224
0.0899123
-0.0149424
0.0871928
-0.0150651
0.0844587
-0.0149825
0.0817411
-0.0146909
0.0790739
-0.0141932
0.0764923
-0.0134995
0.0740316
-0.0126274
0.0717251
-0.0116017
0.0696026
-0.0104532
0.0676886
-0.00921668
0.0660011
-0.00792956
0.0645511
-0.00662904
0.0633425
-0.0053502
0.0623723
-0.00412416
0.0616316
-0.00297687
0.0611069
-0.00192839
0.0607813
-0.000992868
0.0606357
-0.000178848
0.0606499
0.000510023
0.0608038
0.0010742
0.0610778
0.00151741
0.0614536
0.00184561
0.0619141
0.00206536
0.0624435
0.00218438
0.0630284
0.00221751
0.0022588
0.0636732
0.0929754
-0.0104894
-0.0952275
0.0906284
-0.011104
0.0881851
-0.0116733
0.0856608
-0.0120981
0.0830769
-0.0123586
0.080458
-0.0124462
0.077832
-0.0123565
0.07523
-0.0120889
0.0726852
-0.0116484
0.0702317
-0.011046
0.0679028
-0.0102985
0.0657293
-0.00942825
0.0637382
-0.00846211
0.0619512
-0.00742971
0.0603837
-0.006362
0.0590441
-0.00528943
0.0579342
-0.00424027
0.0570494
-0.00323941
0.0563799
-0.00230739
0.0559116
-0.00146005
0.0556272
-0.000708478
0.0555077
-5.93722e-05
0.0555333
0.000484449
0.0556841
0.000923408
0.055941
0.00126052
0.056286
0.00150058
0.0567025
0.00164881
0.0571753
0.0017116
0.0576913
0.00170149
0.00169589
0.0582543
0.0853054
-0.00833868
-0.0874561
0.0830597
-0.00885827
0.0807199
-0.00933351
0.078304
-0.00968216
0.0758342
-0.00988878
0.073336
-0.00994796
0.0708379
-0.00985835
0.0683708
-0.00962184
0.0659671
-0.00924474
0.0636592
-0.00873812
0.0614783
-0.00811758
0.0594528
-0.00740267
0.0576065
-0.0066159
0.0559585
-0.00578161
0.0545211
-0.00492462
0.0533006
-0.00406891
0.0522968
-0.00323648
0.0515038
-0.00244645
0.0509109
-0.00171453
0.0505037
-0.00105277
0.0502648
-0.000469588
0.0501755
2.99088e-05
0.0502164
0.00044356
0.0503681
0.000771672
0.0506121
0.00101654
0.0509308
0.00118183
0.0513081
0.00127152
0.0517291
0.00129065
0.0521812
0.00124941
0.00120992
0.0526671
0.0770232
-0.00631517
-0.0790467
0.0749048
-0.00673986
0.0726951
-0.00712386
0.0704133
-0.00740035
0.068083
-0.00755847
0.0657307
-0.00759569
0.0633854
-0.00751298
0.0610774
-0.00731387
0.058838
-0.00700532
0.0566977
-0.00659781
0.0546851
-0.00610502
0.0528257
-0.00554328
0.0511406
-0.00493073
0.0496453
-0.0042864
0.04835
-0.00362926
0.0472584
-0.00297729
0.0463686
-0.00234673
0.0456737
-0.00175157
0.0451624
-0.00120321
0.04482
-0.000710367
0.0446296
-0.000279187
0.0445729
8.65853e-05
0.0446312
0.0003853
0.0447858
0.0006171
0.0450187
0.00078359
0.0453132
0.000887377
0.0456534
0.00093132
0.0460248
0.000919189
0.0464154
0.000858846
0.000798287
0.046827
0.06795
-0.00445213
-0.069813
0.0659927
-0.00478261
0.0639463
-0.00507743
0.0618318
-0.00528585
0.0596744
-0.00540109
0.0575015
-0.00542275
0.0553418
-0.00535326
0.0532249
-0.00519696
0.0511802
-0.00496065
0.0492359
-0.00465352
0.0474177
-0.00428685
0.0457479
-0.00387343
0.0442441
-0.00342698
0.0429191
-0.00296142
0.0417801
-0.00249026
0.0408289
-0.00202603
0.040062
-0.00157987
0.0394717
-0.00116125
0.0390463
-0.000777864
0.0387716
-0.000435607
0.0386311
-0.000138677
0.0386074
0.000110293
0.0386826
0.000310051
0.0388391
0.000460555
0.03906
0.000562773
0.039329
0.000618385
0.039631
0.000629275
0.0399521
0.000598084
0.0402805
0.00053047
0.000461431
0.0406173
0.0578066
-0.00279356
-0.0594651
0.0560552
-0.00303126
0.0542179
-0.00324014
0.0523177
-0.0033856
0.0503807
-0.00346408
0.0484343
-0.0034764
0.0465065
-0.0034255
0.0446253
-0.0033157
0.0428175
-0.00315285
0.0411083
-0.00294429
0.0395199
-0.00269847
0.038071
-0.0024245
0.0367757
-0.00213174
0.0356437
-0.00182936
0.0346794
-0.00152597
0.0338827
-0.00122935
0.0332491
-0.000946268
0.0327703
-0.000682425
0.0324348
-0.000442435
0.0322291
-0.000229872
0.0321378
-4.7337e-05
0.0321446
0.000103429
0.0322332
0.0002215
0.0323871
0.000306656
0.0325905
0.000359315
0.0328286
0.000380371
0.0330869
0.000370903
0.0333524
0.000332612
0.0336137
0.000269162
0.000203613
0.0338715
0.0461293
-0.00140434
-0.0475186
0.0446518
-0.00155369
0.0430944
-0.00168277
0.0414809
-0.00177208
0.0398371
-0.00182028
0.0381892
-0.00182852
0.0365632
-0.00179945
0.034984
-0.00173656
0.0334753
-0.00164417
0.0320583
-0.00152726
0.030751
-0.0013912
0.029568
-0.00124146
0.0285196
-0.00108336
0.0276121
-0.000921878
0.0268476
-0.000761488
0.0262244
-0.000606096
0.0257371
-0.00045902
0.0253777
-0.000323012
0.0251356
-0.000200314
0.0249984
-9.27144e-05
0.0249526
-1.54408e-06
0.0249839
7.22082e-05
0.0250775
0.000127859
0.0252191
0.000165091
0.0253945
0.000183918
0.0255902
0.000184615
0.0257935
0.000167629
0.0259922
0.000133894
0.026176
8.53852e-05
3.44836e-05
0.0263451
0.0320906
-0.000398888
-0.033096
0.0310067
-0.000469834
0.0298537
-0.000529701
0.0286523
-0.000570725
0.0274254
-0.000593393
0.026196
-0.000599058
0.0249862
-0.000589638
0.0238168
-0.000567246
0.0227068
-0.000534133
0.0216722
-0.000492622
0.020726
-0.000444994
0.0198779
-0.000393399
0.0191343
-0.000339776
0.0184983
-0.000285816
0.0179697
-0.000232949
0.017546
-0.000182355
0.017222
-0.000134996
0.0169906
-9.16635e-05
0.0168433
-5.30172e-05
0.0167703
-1.97216e-05
0.0167612
7.58472e-06
0.0168037
2.97345e-05
0.0168865
4.50053e-05
0.016998
5.35762e-05
0.0171267
5.52813e-05
0.0172613
4.99851e-05
0.0173914
3.75686e-05
0.0175072
1.80186e-05
0.0176009
-8.31758e-06
-3.52607e-05
0.0176707
0.0141552
-0.0145541
0.0136854
0.0131557
0.012585
0.0119916
0.0113925
0.0108029
0.0102356
0.0097015
0.00920888
0.00876388
0.00837049
0.00803071
0.00774489
0.00751194
0.00732959
0.00719459
0.00710293
0.00704991
0.00703019
0.00703778
0.00706751
0.00711252
0.00716609
0.00722137
0.00727136
0.00730893
0.00732695
0.00731863
0.00728337
0.351225
-0.178772
0.333837
-0.177218
0.317076
-0.174906
0.300819
-0.172324
0.284959
-0.169505
0.269411
-0.16646
0.254121
-0.163203
0.239056
-0.159747
0.224201
-0.1561
0.209549
-0.152269
0.195103
-0.148261
0.180872
-0.144078
0.16687
-0.139724
0.153114
-0.1352
0.139627
-0.130502
0.126433
-0.125624
0.113561
-0.120559
0.101042
-0.115292
0.0889094
-0.109806
0.077202
-0.104078
0.0659614
-0.0980765
0.0552359
-0.09176
0.0450813
-0.085073
0.0355643
-0.0779391
0.026767
-0.0702495
0.0187972
-0.0618432
0.0118045
-0.0524725
0.00601744
-0.0417315
0.00183761
-0.0289162
-0.0127165
0.334628
-0.162156
0.318167
-0.160756
0.302124
-0.158863
0.286431
-0.156631
0.271029
-0.154103
0.255886
-0.151316
0.240981
-0.148297
0.226302
-0.145068
0.211846
-0.141644
0.197617
-0.13804
0.183622
-0.134266
0.169875
-0.130331
0.156391
-0.126241
0.143189
-0.121998
0.13029
-0.117602
0.117716
-0.113051
0.105493
-0.108336
0.0936481
-0.103447
0.0822108
-0.0983689
0.0712141
-0.0930814
0.0606949
-0.0875573
0.0506953
-0.0817603
0.0412642
-0.0756419
0.0324605
-0.0691353
0.0243572
-0.0621462
0.0170509
-0.0545369
0.0106765
-0.046098
0.00543823
-0.0364932
0.00167956
-0.0251576
-0.0110369
0.317358
-0.146418
0.301795
-0.145193
0.286489
-0.143557
0.27143
-0.141572
0.256604
-0.139277
0.242001
-0.136714
0.227618
-0.133914
0.213455
-0.130905
0.19952
-0.127708
0.185821
-0.124341
0.172372
-0.120818
0.15919
-0.117148
0.14629
-0.113341
0.133692
-0.1094
0.121416
-0.105326
0.109482
-0.101117
0.0979144
-0.0967682
0.0867371
-0.0922697
0.075977
-0.0876088
0.0656635
-0.0827679
0.0558295
-0.0777233
0.0465123
-0.0724432
0.0377559
-0.0668855
0.0296129
-0.0609923
0.0221495
-0.0546828
0.0154526
-0.04784
0.00964346
-0.0402889
0.00490295
-0.0317527
0.00152378
-0.0217784
-0.00951317
0.300886
-0.131446
0.28605
-0.130358
0.271387
-0.128894
0.256906
-0.12709
0.242616
-0.124987
0.228525
-0.122623
0.214645
-0.120034
0.200988
-0.117248
0.187566
-0.114287
0.174396
-0.111171
0.161494
-0.107915
0.148875
-0.10453
0.136558
-0.101024
0.12456
-0.0974021
0.1129
-0.0936661
0.101598
-0.0898145
0.0906725
-0.085843
0.0801468
-0.081744
0.0700443
-0.0775063
0.0603909
-0.0731146
0.0512158
-0.0685482
0.0425524
-0.0637798
0.0344398
-0.0587729
0.0269254
-0.0534779
0.0200687
-0.0478261
0.0139476
-0.041719
0.00867018
-0.0350114
0.00439456
-0.0274771
0.00136768
-0.0187515
-0.00814548
0.285161
-0.117107
0.270923
-0.11612
0.256815
-0.114786
0.242858
-0.113134
0.229075
-0.111204
0.215485
-0.109033
0.202107
-0.106656
0.18896
-0.1041
0.17606
-0.101387
0.163426
-0.0985368
0.151074
-0.0955631
0.139022
-0.0924775
0.127285
-0.0892877
0.115882
-0.0859987
0.104828
-0.0826123
0.0941415
-0.0791278
0.0838401
-0.0755416
0.0739432
-0.0718472
0.0644719
-0.068035
0.055449
-0.0640917
0.0469007
-0.0599998
0.0388564
-0.0557355
0.0313513
-0.0512678
0.0244278
-0.0465544
0.0181391
-0.0415374
0.012555
-0.0361348
0.00777032
-0.0302268
0.00392213
-0.0236289
0.00121776
-0.0160471
-0.00692772
0.270158
-0.103307
0.256441
-0.102403
0.242837
-0.101182
0.229376
-0.0996733
0.216086
-0.097914
0.202993
-0.0959399
0.190119
-0.093782
0.177485
-0.091466
0.16511
-0.0890131
0.153014
-0.0864405
0.141213
-0.0837618
0.129723
-0.0809873
0.118559
-0.0781243
0.107738
-0.0751774
0.097274
-0.0721483
0.0871828
-0.0690366
0.0774804
-0.0658393
0.0681841
-0.0625508
0.0593123
-0.0591631
0.0508853
-0.0556648
0.0429262
-0.0520407
0.0354615
-0.0482708
0.0285224
-0.0443287
0.0221469
-0.0401789
0.0163824
-0.035773
0.0112908
-0.0310431
0.00695503
-0.0258911
0.00349302
-0.0201668
0.00107903
-0.0136332
-0.0058487
0.25588
-0.0899906
0.242643
-0.089166
0.229519
-0.0880574
0.21654
-0.0866944
0.203737
-0.0851117
0.191139
-0.0833417
0.17877
-0.0814124
0.16665
-0.0793468
0.154801
-0.0771639
0.14324
-0.0748792
0.131983
-0.0725047
0.121045
-0.0700495
0.110441
-0.0675201
0.100184
-0.0649204
0.0902876
-0.0622522
0.0807662
-0.0595152
0.0716337
-0.0567068
0.0629053
-0.0538224
0.0545971
-0.050855
0.0467274
-0.0477951
0.0393166
-0.0446298
0.0323882
-0.0413424
0.0259703
-0.0379107
0.0200966
-0.0343052
0.0148093
-0.0304857
0.0101629
-0.0263967
0.0062299
-0.0219581
0.00311145
-0.0170484
0.000954658
-0.0114764
-0.00489404
0.242341
-0.0771327
0.229567
-0.0763919
0.216912
-0.0754021
0.20441
-0.0741927
0.192094
-0.0727953
0.17999
-0.0712385
0.168125
-0.0695467
0.156518
-0.0677401
0.145189
-0.0658352
0.134155
-0.0638451
0.123431
-0.0617804
0.11303
-0.0596488
0.102966
-0.0574559
0.0932508
-0.055205
0.0838963
-0.0528978
0.0749149
-0.0505338
0.0663192
-0.048111
0.0581225
-0.0456256
0.0503392
-0.0430717
0.0429855
-0.0404414
0.0360795
-0.0377238
0.0296423
-0.0349053
0.0236988
-0.0319673
0.0182792
-0.0288856
0.0134209
-0.0256275
0.00917189
-0.0221477
0.00559535
-0.0183816
0.00277843
-0.0142315
0.000846002
-0.00954394
-0.00404803
0.229553
-0.0647262
0.217238
-0.0640767
0.205051
-0.0632149
0.193027
-0.0621683
0.181196
-0.0609649
0.169587
-0.0596293
0.158222
-0.058182
0.147122
-0.0566403
0.136305
-0.0550179
0.125786
-0.0533259
0.115579
-0.051573
0.105696
-0.0497658
0.0961485
-0.0479088
0.0869483
-0.0460049
0.0781058
-0.0440552
0.0696317
-0.0420597
0.0615371
-0.0400165
0.053834
-0.0379225
0.0465351
-0.0357728
0.0396548
-0.033561
0.0332092
-0.0312783
0.0272174
-0.0289134
0.0217015
-0.0264513
0.0166884
-0.0238725
0.0122114
-0.0211505
0.0083129
-0.0182491
0.00504811
-0.0151168
0.00249254
-0.0116759
0.000753077
-0.00780448
-0.00329496
0.217522
-0.0527732
0.205668
-0.0522234
0.193951
-0.0514981
0.182405
-0.0506224
0.17106
-0.0496199
0.159942
-0.0485108
0.149072
-0.0473123
0.13847
-0.0460381
0.128152
-0.0446995
0.118131
-0.0433056
0.108422
-0.0418633
0.0990337
-0.0403779
0.089978
-0.0388531
0.0812643
-0.0372911
0.0729021
-0.0356931
0.0649011
-0.0340586
0.057271
-0.0323865
0.0500226
-0.0306741
0.0431673
-0.0289175
0.0367179
-0.0271116
0.0306891
-0.0252495
0.0250976
-0.0233219
0.0199636
-0.0213173
0.0153111
-0.01922
0.0111698
-0.0170092
0.00757725
-0.0146566
0.00458224
-0.0121218
0.00225066
-0.00934432
0.000675036
-0.00622885
-0.00261992
0.206237
-0.04128
0.19485
-0.0408365
0.183606
-0.0402545
0.172539
-0.0395552
0.161677
-0.0387576
0.151044
-0.0378776
0.14066
-0.0369285
0.130543
-0.0359213
0.120708
-0.0348647
0.111168
-0.0337656
0.101935
-0.0326296
0.0930173
-0.0314606
0.0844257
-0.0302615
0.0761686
-0.029034
0.0682546
-0.027779
0.0606922
-0.0264962
0.0534903
-0.0251846
0.0466585
-0.0238423
0.0402071
-0.0224661
0.0341477
-0.0210522
0.0284934
-0.0195952
0.0232596
-0.0180881
0.0184643
-0.016522
0.0141292
-0.0148849
0.0102812
-0.0131612
0.00695363
-0.011329
0.00419002
-0.00935815
0.00204859
-0.00720289
0.000610517
-0.00479078
-0.0020094
0.195675
-0.0302532
0.184759
-0.0299204
0.17399
-0.0294855
0.1634
-0.028965
0.153015
-0.0283729
0.142859
-0.0277211
0.13295
-0.0270194
0.123304
-0.0262755
0.113935
-0.0254959
0.104855
-0.0246858
0.0960747
-0.023849
0.0876027
-0.0229885
0.0794476
-0.0221064
0.0716174
-0.0212039
0.0641199
-0.0202815
0.0569627
-0.0193391
0.0501541
-0.018376
0.0437026
-0.0173908
0.0376176
-0.0163812
0.0319097
-0.0153443
0.0265909
-0.0142764
0.0216752
-0.0131724
0.017179
-0.0120257
0.013122
-0.010828
0.00952864
-0.00956779
0.00642922
-0.00822962
0.0038628
-0.00679173
0.00188154
-0.00522163
0.000557895
-0.00346713
-0.00145151
0.1858
-0.0196971
0.175357
-0.0194768
0.165061
-0.0191898
0.154943
-0.0188472
0.145029
-0.0184584
0.135339
-0.018031
0.125891
-0.0175713
0.116699
-0.0170844
0.107778
-0.0165746
0.0991375
-0.0160452
0.090787
-0.0154985
0.0827351
-0.0149366
0.0749895
-0.0143608
0.0675576
-0.0137719
0.0604465
-0.0131703
0.0536632
-0.0125558
0.0472151
-0.011928
0.0411102
-0.0112859
0.0353572
-0.0106281
0.0299658
-0.00995287
0.0249469
-0.00925757
0.0203136
-0.00853902
0.0160809
-0.00779304
0.0122671
-0.00701416
0.00889437
-0.0061951
0.00599065
-0.0053259
0.00359159
-0.00439267
0.00174458
-0.00337462
0.000515472
-0.00223803
-0.000936038
0.176566
-0.00961303
0.166594
-0.00950435
0.156767
-0.0093631
0.147115
-0.00919483
0.13766
-0.00900408
0.128424
-0.00879457