/*--------------------------------*- C++ -*----------------------------------*\
  =========                 |
  \\      /  F ield         | OpenFOAM: The Open Source CFD Toolbox
   \\    /   O peration     | Website:  https://openfoam.org
    \\  /    A nd           | Version:  12
     \\/     M anipulation  |
\*---------------------------------------------------------------------------*/
FoamFile
{
    format      ascii;
    class       volScalarField;
    location    "200";
    object      pMean;
}
// * * * * * * * * * * * * * * * * * * * * * * * * * * * * * * * * * * * * * //

dimensions      [0 2 -2 0 0 0 0];

internalField   nonuniform List<scalar> 
6750
(
0.00438497
0.00435627
0.00430595
0.00412421
0.0031695
0.00612495
0.00609994
0.00598724
0.00573632
0.005403
0.0081086
0.00806222
0.0079466
0.00776252
0.00762715
0.0101581
0.010077
0.00996744
0.00984023
0.00977887
0.0121785
0.0120537
0.0119348
0.0118362
0.0118132
0.0140903
0.0139174
0.0137788
0.0136919
0.013688
0.0158447
0.0156224
0.0154605
0.0153788
0.0153857
0.0174121
0.0171413
0.0169561
0.0168777
0.0168923
0.0187742
0.0184572
0.0182508
0.0181755
0.0181964
0.0199207
0.0195616
0.019337
0.0192652
0.0192911
0.0208489
0.0204531
0.0202139
0.020146
0.0201758
0.021563
0.0211366
0.0208871
0.020823
0.0208556
0.0220733
0.0216225
0.0213674
0.0213068
0.0213409
0.0223952
0.0219256
0.0216711
0.0216124
0.0216466
0.0225431
0.0220678
0.0218187
0.021758
0.0217905
0.0225433
0.022068
0.0218189
0.0217582
0.0217907
0.0223957
0.0219262
0.0216717
0.021613
0.0216472
0.0220742
0.0216234
0.0213683
0.0213077
0.0213418
0.0215642
0.0211378
0.0208884
0.0208243
0.0208569
0.0208505
0.0204546
0.0202155
0.0201476
0.0201774
0.0199225
0.0195635
0.0193389
0.0192671
0.019293
0.0187763
0.0184594
0.018253
0.0181777
0.0181986
0.0174146
0.0171437
0.0169586
0.0168802
0.0168949
0.0158474
0.0156251
0.0154632
0.0153815
0.0153885
0.0140932
0.0139202
0.0137817
0.0136949
0.013691
0.0121815
0.0120567
0.0119379
0.0118394
0.0118164
0.0101612
0.0100801
0.00997059
0.00984343
0.00978206
0.00811174
0.00806539
0.00794981
0.00776575
0.00763033
0.00612811
0.00610312
0.00599045
0.00573953
0.00540612
0.00438811
0.00435944
0.00430913
0.00412737
0.00317259
-0.0025143
-0.00200146
-0.000684691
0.000275367
0.000962354
0.00150673
0.00193655
0.00226826
0.00252839
0.00272224
0.00284051
0.00293714
0.00299261
0.00300499
0.00297221
0.00288896
0.0027497
0.00255263
0.00229603
0.00197709
0.00159393
0.00122642
0.000824791
0.000402877
-2.2877e-05
-0.000442447
-0.000847814
-0.00122097
-0.00155157
-0.00197599
0.00116508
0.00186098
0.00257125
0.00291242
0.00309981
0.00321429
0.00325985
0.00324955
0.00320699
0.00312237
0.00299418
0.00289901
0.00281054
0.00273302
0.00266463
0.00259577
0.00251284
0.00240246
0.00225164
0.00205399
0.00181768
0.00148317
0.00112397
0.000727217
0.000299369
-0.000150075
-0.000614341
-0.0010761
-0.00148629
-0.00190195
0.00359637
0.00375066
0.00403274
0.0041598
0.00421807
0.0042203
0.00415706
0.0040407
0.00388547
0.00365923
0.00339381
0.00314472
0.00288765
0.00263391
0.00238931
0.00215381
0.00192374
0.001693
0.00145449
0.00120153
0.000929953
0.000640914
0.000331941
2.59939e-06
-0.000344272
-0.000704875
-0.00107976
-0.00145874
-0.00176121
-0.00195959
0.00508797
0.00488524
0.00500737
0.00507742
0.0050817
0.00502035
0.00488974
0.00470438
0.00446673
0.00412751
0.0037582
0.00337666
0.0029697
0.00255364
0.00214038
0.00173839
0.00135344
0.000988355
0.000643339
0.000316045
3.35106e-06
-0.000292665
-0.000579371
-0.000861118
-0.00114012
-0.00141821
-0.00170304
-0.00199271
-0.00217885
-0.00211816
0.00626113
0.00593486
0.00598816
0.00599863
0.00593102
0.00579231
0.00558336
0.00531566
0.00498067
0.00453195
0.00405714
0.00354778
0.00300425
0.00244594
0.00188901
0.00134778
0.000834297
0.000357303
-7.81394e-05
-0.000470801
-0.000822378
-0.00113543
-0.00141562
-0.00166973
-0.00190373
-0.00212346
-0.0023423
-0.00256609
-0.00266246
-0.00235823
0.00730972
0.00695555
0.00695381
0.00689432
0.00675021
0.00653268
0.00624293
0.00588784
0.00544643
0.00489338
0.0043094
0.00367616
0.00300413
0.00231504
0.00162863
0.000963628
0.00033657
-0.000239718
-0.000756911
-0.00121143
-0.001604
-0.00193851
-0.00222129
-0.00246062
-0.0026647
-0.00284208
-0.0030109
-0.00318286
-0.00320561
-0.00268048
0.0082653
0.00792086
0.00786784
0.00774008
0.007524
0.00723093
0.00686257
0.00642044
0.00586911
0.0052184
0.00452518
0.00377282
0.00297867
0.00216649
0.00135921
0.000579186
-0.000153495
-0.000822869
-0.0014181
-0.00193389
-0.0023701
-0.0027308
-0.00302328
-0.003257
-0.00344169
-0.00358794
-0.00371795
-0.00384756
-0.00380604
-0.00308478
0.00914624
0.00883411
0.00873536
0.00854244
0.00825739
0.00789025
0.00744452
0.00691427
0.00625399
0.00551081
0.00470875
0.00384133
0.00293037
0.00200135
0.00107998
0.000191678
-0.000640617
-0.00139841
-0.00206888
-0.00264534
-0.00312696
-0.00351781
-0.00382582
-0.00406133
-0.00423521
-0.0043599
-0.00446064
-0.0045565
-0.00445885
-0.00356777
0.00997217
0.00970769
0.00956723
0.00931035
0.0089571
0.00851702
0.00799322
0.00737038
0.00660846
0.00577283
0.00486284
0.00388386
0.0028604
0.00181953
0.000789486
-0.000201749
-0.00112887
-0.00197134
-0.00271473
-0.00335126
-0.00387953
-0.00430361
-0.00463182
-0.00487522
-0.00504551
-0.00515662
-0.00523657
-0.005306
-0.00515929
-0.00412484
0.0107582
0.0105506
0.0103707
0.0100503
0.00962888
0.00911693
0.00851367
0.00779253
0.00693757
0.00600645
0.00499019
0.00390253
0.00276982
0.00162085
0.000486116
-0.000604154
-0.00162265
-0.00254714
-0.00336189
-0.00405823
-0.00463432
-0.00509419
-0.00544647
-0.00570274
-0.00587554
-0.00597973
-0.00604631
-0.00609578
-0.0059056
-0.00475174
0.0115152
0.0113702
0.0111529
0.0107681
0.0102774
0.00969385
0.00900967
0.0081873
0.00724466
0.00621539
0.00509387
0.00389934
0.0026595
0.00140493
0.000168182
-0.00101857
-0.00212626
-0.0031312
-0.00401656
-0.00477295
-0.00539816
-0.00589618
-0.00627589
-0.00654932
-0.00672954
-0.00683257
-0.00689195
-0.00692695
-0.00669782
-0.00544535
0.0122523
0.0121737
0.0119204
0.01147
0.0109091
0.0102531
0.00948364
0.00856194
0.00753246
0.00640294
0.00517649
0.00387589
0.00253001
0.00117119
-0.000166132
-0.00144802
-0.00264386
-0.0037287
-0.00468475
-0.005502
-0.00617789
-0.00671643
-0.00712668
-0.00742103
-0.00761304
-0.00771985
-0.00777721
-0.00780249
-0.00753823
-0.00620418
0.0129783
0.0129685
0.0126804
0.0121631
0.0115314
0.0107992
0.00993762
0.00892394
0.00780352
0.00657197
0.00524032
0.0038335
0.00238163
0.000918792
-0.000518807
-0.00189563
-0.00317968
-0.00434485
-0.00537248
-0.006252
-0.00698058
-0.00756217
-0.00800605
-0.00832487
-0.00853265
-0.00864759
-0.00870769
-0.0087275
-0.00843112
-0.00702875
0.0137016
0.0137615
0.0134401
0.0128543
0.0121502
0.0113386
0.0103792
0.00927776
0.00806106
0.00672552
0.00528749
0.00377328
0.00221441
0.000646679
-0.000892057
-0.00236477
-0.00373815
-0.00498504
-0.006086
-0.0070299
-0.00781368
-0.00844123
-0.00892198
-0.00926887
-0.00949622
-0.00962345
-0.00969069
-0.00970884
-0.00938278
-0.00792188
0.0144293
0.0145629
0.0142088
0.0135526
0.0127728
0.0118756
0.0108174
0.00962703
0.00830906
0.00686681
0.00532002
0.00369613
0.00202814
0.00035348
-0.00128841
-0.00285908
-0.00432401
-0.00565504
-0.00683197
-0.00784316
-0.00868527
-0.00936215
-0.00988336
-0.010262
-0.0105129
-0.0106565
-0.0107352
-0.0107553
-0.0104016
-0.00888898
0.0151691
0.0153841
0.0149986
0.0142695
0.013407
0.0124143
0.0112616
0.00997571
0.00855149
0.00699891
0.00533982
0.00360277
0.00182231
3.74695e-05
-0.0017108
-0.00338271
-0.00494255
-0.00636121
-0.00761773
-0.00869998
-0.00960433
-0.0103346
-0.0109003
-0.0113148
-0.0115934
-0.0117577
-0.0118521
-0.0118778
-0.0114985
-0.0099383
0.0159311
0.0162381
0.0158218
0.0150149
0.014062
0.0129648
0.0117188
0.0103288
0.00879278
0.00712502
0.00534871
0.00349369
0.00159608
-0.000303539
-0.00216275
-0.00394045
-0.0055998
-0.00711072
-0.00845155
-0.00960962
-0.010581
-0.0113694
-0.0119844
-0.0124396
-0.0127503
-0.0129401
-0.0130548
-0.0130898
-0.0126868
-0.0110814
0.0167326
0.0171388
0.0166929
0.0157982
0.0147438
0.0135419
0.0121954
0.0106926
0.00903794
0.0072485
0.00534849
0.00336915
0.00134815
-0.000672346
-0.00264853
-0.004538
-0.00630281
-0.00791195
-0.009343
-0.0105828
-0.0116271
-0.0124793
-0.0131494
-0.0136506
-0.013999
-0.0142193
-0.0143596
-0.0144083
-0.0139834
-0.0123338
0.0175953
0.0180991
0.0176251
0.0166347
0.0154651
0.0141575
0.0126985
0.0110738
0.00929234
0.00737288
0.00534085
0.00322901
0.00107664
-0.0010726
-0.00317348
-0.00518233
-0.0070601
-0.00877486
-0.0103035
-0.0116322
-0.0127564
-0.0136795
-0.0144113
-0.0149652
-0.0153575
-0.0156146
-0.0157864
-0.0158536
-0.0154091
-0.0137154
0.0185392
0.0191421
0.0186383
0.0175392
0.0162449
0.014823
0.0132388
0.0114813
0.00956235
0.0075021
0.00532742
0.00307269
0.000778781
-0.00150912
-0.00374439
-0.00588211
-0.00788214
-0.00971166
-0.0113468
-0.0127732
-0.013986
-0.0149883
-0.0157899
-0.0164043
-0.0168479
-0.017149
-0.0173593
-0.0174511
-0.0169901
-0.0152524
0.0195938
0.0202989
0.0197562
0.0185307
0.0171071
0.0155541
0.0138297
0.0119255
0.00985523
0.00764043
0.0053096
0.00289881
0.000450554
-0.00198845
-0.00437019
-0.00664852
-0.00878226
-0.0107377
-0.0124902
-0.0140251
-0.0153368
-0.0164284
-0.0173095
-0.0179937
-0.0184978
-0.0188519
-0.0191097
-0.0192331
-0.0187596
-0.0169784
0.020801
0.021599
0.0210051
0.0196443
0.0180758
0.0163706
0.0144876
0.0124189
0.0101794
0.00779242
0.00528828
0.00270477
8.60653e-05
-0.00251959
-0.0050628
-0.00749626
-0.00977776
-0.0118728
-0.013756
-0.0154122
-0.0168354
-0.0180286
-0.0190012
-0.0197667
-0.0203423
-0.0207601
-0.0210756
-0.02124
-0.02076
-0.0189373
0.0222129
0.0230921
0.0224317
0.0209216
0.0191812
0.0172987
0.0152333
0.0129766
0.0105447
0.00796293
0.00526349
0.00248605
-0.000323477
-0.00311531
-0.00583871
-0.00844525
-0.0108918
-0.0131432
-0.0151734
-0.0169667
-0.0185169
-0.0198266
-0.0209052
-0.0217661
-0.0224271
-0.0229219
-0.0233079
-0.0235256
-0.0230477
-0.0211878
0.0239053
0.0248478
0.0241026
0.0224117
0.0204645
0.0183724
0.0160933
0.0136177
0.010963
0.00815678
0.00523355
0.00223491
-0.000791439
-0.00379416
-0.00672127
-0.00952334
-0.0121565
-0.0145849
-0.0167821
-0.018732
-0.0204281
-0.0218728
-0.0230754
-0.0240492
-0.0248124
-0.025401
-0.025874
-0.0261602
-0.0256976
-0.0238093
0.0259979
0.0269679
0.0260998
0.0241817
0.0219833
0.0196379
0.0171026
0.0143663
0.0114481
0.00837822
0.00519364
0.00193815
-0.0013387
-0.00458405
-0.0077448
-0.0107707
-0.0136175
-0.0162488
-0.0186381
-0.0207689
-0.0226346
-0.0242375
-0.0255866
-0.0266952
-0.0275822
-0.028286
-0.0288664
-0.0292407
-0.0288122
-0.0269124
0.0286445
0.0295958
0.0285419
0.0263328
0.0238202
0.0211611
0.0183101
0.0152549
0.0120171
0.00862986
0.0051331
0.001573
-0.00199894
-0.00552848
-0.00896168
-0.012248
-0.0153429
-0.0182102
-0.0208235
-0.0231662
-0.0252317
-0.0270221
-0.0285463
-0.0298177
-0.0308556
-0.031701
-0.0324155
-0.0329039
-0.0325385
-0.0306568
0.0321252
0.0329514
0.0316112
0.0290176
0.0261012
0.0230392
0.0197854
0.0163271
0.012689
0.00890847
0.00502858
0.00109829
-0.00282903
-0.00669817
-0.010455
-0.0140494
-0.0174377
-0.0205845
-0.0234639
-0.0260599
-0.0283658
-0.0303835
-0.0321218
-0.0335936
-0.0348187
-0.0358398
-0.0367202
-0.0373565
-0.0370972
-0.0352866
0.0369006
0.0373859
0.0355755
0.0324524
0.0289983
0.0254018
0.0216168
0.0176331
0.0134796
0.00919827
0.0048365
0.000446153
-0.00391781
-0.00819994
-0.0123471
-0.016311
-0.0200503
-0.0235317
-0.0267311
-0.0296336
-0.0322333
-0.0345322
-0.0365383
-0.0382642
-0.0397298
-0.0409783
-0.0420724
-0.0429079
-0.0428364
-0.041209
0.0438808
0.0436379
0.0410631
0.0372055
0.0330088
0.0286518
0.0240996
0.0193556
0.0144611
0.00946785
0.00443071
-0.0005939
-0.00554953
-0.010382
-0.0150414
-0.019484
-0.0236731
-0.0275802
-0.031184
-0.0344707
-0.0374382
-0.0400928
-0.042433
-0.04447
-0.0462225
-0.0477301
-0.0490503
-0.0500955
-0.0502951
-0.0490549
0.0561882
0.0542149
0.0500002
0.0448311
0.0393903
0.0337754
0.0279796
0.0220383
0.0160114
0.00996118
0.0039473
-0.00197452
-0.00775352
-0.0133451
-0.0187114
-0.0238215
-0.0286506
-0.0331794
-0.037395
-0.0412889
-0.0448517
-0.0480764
-0.0509754
-0.0535526
-0.0558159
-0.0577896
-0.0595208
-0.0609928
-0.0618495
-0.0614175
0.000929369
0.00195257
0.00372614
0.00516155
0.00638905
0.00754413
0.00865692
0.00973518
0.0107883
0.0118257
0.0128562
0.0138887
0.0149324
0.0159976
0.0170946
0.0182362
0.0194374
0.020717
0.0220965
0.0236008
0.0252628
0.0271261
0.0292448
0.0316932
0.0345725
0.0380326
0.0422758
0.0475653
0.0541074
0.0627259
0.0053061
0.0063596
0.007551
0.00856249
0.00948137
0.0103674
0.0112317
0.0120788
0.012916
0.0137516
0.0145935
0.01545
0.0163297
0.0172421
0.0181974
0.0192082
0.0202893
0.0214592
0.0227397
0.0241585
0.0257514
0.0275659
0.0296649
0.0321348
0.0350977
0.0387326
0.0432964
0.049165
0.0568246
0.0671446
0.00777534
0.00871935
0.00963972
0.0104725
0.011287
0.012101
0.012912
0.0137213
0.0145341
0.0153566
0.0161952
0.017057
0.0179498
0.0188825
0.0198653
0.0209105
0.0220333
0.0232521
0.0245901
0.0260765
0.0277498
0.0296611
0.031879
0.0344988
0.037656
0.0415467
0.0464606
0.0528291
0.0613054
0.0728493
0.00994833
0.0107826
0.0115878
0.0123397
0.0130888
0.0138465
0.0146123
0.0153894
0.0161832
0.0169997
0.017845
0.018726
0.0196503
0.0206269
0.0216662
0.0227808
0.0239865
0.0253024
0.026753
0.0283692
0.0301918
0.0322749
0.0346915
0.0375427
0.0409713
0.045183
0.050481
0.0573099
0.066411
0.078775
0.0119779
0.0127171
0.0134309
0.0141099
0.0147975
0.015505
0.0162334
0.0169861
0.0177678
0.0185837
0.0194396
0.0203422
0.021299
0.0223191
0.0234132
0.0245947
0.0258797
0.0272886
0.028847
0.0305878
0.0325539
0.0348024
0.0374099
0.0404822
0.0441675
0.0486785
0.0543274
0.0615665
0.0712187
0.0843204
0.0138335
0.0144875
0.0151228
0.0157402
0.0163789
0.0170488
0.0177511
0.0184884
0.019265
0.0200856
0.0209558
0.0218819
0.0228715
0.0239337
0.0250796
0.0263228
0.02768
0.0291725
0.0308269
0.0326776
0.0347695
0.0371618
0.0399342
0.043196
0.0471003
0.0518657
0.0578129
0.0654052
0.0755452
0.0893462
0.0155097
0.0160871
0.0166552
0.0172219
0.0178222
0.0184638
0.0191477
0.019876
0.0206525
0.0214817
0.0223687
0.0233198
0.0243423
0.0254456
0.0266407
0.0279415
0.0293654
0.0309341
0.0326752
0.0346241
0.0368272
0.0393454
0.0422607
0.0456854
0.0497762
0.0547567
0.0609557
0.0688479
0.0794023
0.0938237
0.017
0.0175083
0.0180186
0.0185438
0.0191136
0.019734
0.0204051
0.0211289
0.0219088
0.0227487
0.0236536
0.0246293
0.0256835
0.0268251
0.0280656
0.029419
0.030903
0.03254
0.0343581
0.0363937
0.0386941
0.0413218
0.0443605
0.0479246
0.0521738
0.0573357
0.0637461
0.0718904
0.0827852
0.0977263
0.0182952
0.0187415
0.0192027
0.0196944
0.0202405
0.020845
0.0215077
0.0222301
0.0230152
0.0238665
0.0247887
0.0257876
0.0268705
0.0280467
0.0293274
0.0307271
0.0322637
0.0339599
0.0358444
0.0379544
0.0403379
0.0430584
0.046201
0.049882
0.0542631
0.0595754
0.0661603
0.0745122
0.0856803
0.101039
0.0193881
0.0197801
0.0202005
0.0206656
0.0211936
0.0217866
0.022444
0.023167
0.023958
0.0248203
0.0257583
0.0267777
0.0278858
0.0290917
0.0304069
0.0318459
0.0334268
0.0351726
0.0371126
0.0392843
0.0417364
0.0445333
0.0477611
0.0515372
0.0560254
0.061459
0.0681841
0.0767025
0.0880806
0.103772
0.0202761
0.0206221
0.0210098
0.0214547
0.0219692
0.022554
0.0232082
0.0239327
0.0247294
0.0256015
0.0265532
0.0275899
0.0287188
0.0299492
0.0312926
0.0327636
0.0343804
0.0361664
0.0381509
0.040372
0.0428789
0.0457365
0.0490316
0.0528827
0.057455
0.0629832
0.0698176
0.0784647
0.0899964
0.105953
0.020962
0.0212709
0.0216338
0.0220637
0.0225687
0.0231479
0.0238003
0.0245265
0.0253283
0.0262084
0.0271709
0.0282213
0.0293668
0.0306163
0.0319816
0.0334773
0.0351218
0.0369385
0.0389572
0.041216
0.0437645
0.0466682
0.0500143
0.053922
0.0585574
0.0641564
0.0710724
0.0798144
0.0914537
0.107614
0.0214538
0.0217351
0.0220804
0.0225002
0.0229986
0.0235742
0.0242256
0.0249535
0.0257591
0.0266453
0.0276159
0.0286764
0.0298338
0.0310972
0.0324783
0.0339918
0.0356561
0.0374949
0.0395379
0.0418235
0.0444017
0.047338
0.0507202
0.0546679
0.0593478
0.0649964
0.0719697
0.080777
0.0924874
0.108796
0.0217644
0.0220279
0.0223621
0.0227756
0.0232702
0.0238436
0.0244947
0.0252237
0.026032
0.0269222
0.0278981
0.028965
0.03013
0.0314024
0.0327936
0.0343184
0.0359954
0.0378481
0.0399066
0.0422093
0.0448062
0.0477632
0.0511682
0.055141
0.0598489
0.0655286
0.0725381
0.0813848
0.093133
0.109548
0.0219104
0.0221652
0.0224942
0.0229049
0.0233976
0.0239701
0.0246211
0.0253508
0.0261604
0.0270526
0.028031
0.0291011
0.0302698
0.0315464
0.0329424
0.0344727
0.0361557
0.0380152
0.0400811
0.0423919
0.0449978
0.0479647
0.0513806
0.0553654
0.0600866
0.0657811
0.0728079
0.0816726
0.0934323
0.109912
0.0219106
0.0221654
0.0224944
0.022905
0.0233978
0.0239703
0.0246213
0.025351
0.0261606
0.0270527
0.0280312
0.0291012
0.03027
0.0315465
0.0329426
0.0344728
0.0361559
0.0380153
0.0400811
0.042392
0.0449979
0.0479648
0.0513807
0.0553656
0.0600867
0.0657812
0.072808
0.0816726
0.0934324
0.109912
0.021765
0.0220285
0.0223627
0.0227762
0.0232707
0.0238441
0.0244952
0.0252242
0.0260325
0.0269227
0.0278986
0.0289655
0.0301305
0.0314028
0.0327939
0.0343187
0.0359957
0.0378484
0.0399069
0.0422096
0.0448065
0.0477635
0.0511685
0.0551414
0.0598492
0.0655289
0.0725382
0.0813849
0.0931333
0.109548
0.0214547
0.0217361
0.0220814
0.0225011
0.0229996
0.0235751
0.0242265
0.0249543
0.02576
0.0266462
0.0276167
0.0286772
0.0298345
0.0310979
0.0324789
0.0339924
0.0356567
0.0374954
0.0395384
0.041824
0.0444022
0.0473385
0.0507207
0.0546684
0.0593483
0.0649969
0.07197
0.0807772
0.0924878
0.108796
0.0209633
0.0212722
0.0216351
0.022065
0.02257
0.0231491
0.0238015
0.0245277
0.0253294
0.0262095
0.027172
0.0282224
0.0293677
0.0306173
0.0319825
0.0334781
0.0351226
0.0369393
0.0389579
0.0412167
0.0437652
0.0466688
0.0500149
0.0539227
0.0585581
0.0641571
0.0710729
0.0798148
0.0914544
0.107615
0.0202778
0.0206237
0.0210115
0.0214563
0.0219709
0.0225556
0.0232098
0.0239342
0.0247309
0.025603
0.0265545
0.0275912
0.0287201
0.0299504
0.0312938
0.0327647
0.0343814
0.0361673
0.0381518
0.0403729
0.0428797
0.0457373
0.0490324
0.0528836
0.0574558
0.0629841
0.0698185
0.0784654
0.0899973
0.105954
0.0193901
0.0197821
0.0202025
0.0206676
0.0211956
0.0217885
0.0224459
0.0231688
0.0239597
0.024822
0.0257599
0.0267793
0.0278873
0.0290931
0.0304082
0.0318471
0.033428
0.0351738
0.0371137
0.0392854
0.0417375
0.0445343
0.047762
0.0515381
0.0560264
0.0614602
0.0681854
0.0767037
0.0880817
0.103773
0.0182975
0.0187438
0.019205
0.0196966
0.0202426
0.0208471
0.0215098
0.0222322
0.0230172
0.0238684
0.0247905
0.0257894
0.0268722
0.0280482
0.0293289
0.0307286
0.0322652
0.0339613
0.0358458
0.0379557
0.0403391
0.0430595
0.0462021
0.049883
0.0542643
0.059577
0.0661621
0.0745139
0.0856818
0.101039
0.0170026
0.0175109
0.0180211
0.0185463
0.0191161
0.0197364
0.0204074
0.0211312
0.021911
0.0227508
0.0236556
0.0246313
0.0256853
0.0268269
0.0280673
0.0294206
0.0309046
0.0325415
0.0343596
0.0363952
0.0386955
0.0413231
0.0443616
0.0479257
0.0521751
0.0573376
0.0637484
0.0718925
0.0827868
0.097727
0.0155125
0.0160899
0.0166579
0.0172247
0.0178248
0.0184664
0.0191502
0.0198784
0.0206549
0.021484
0.022371
0.0233219
0.0243444
0.0254475
0.0266426
0.0279433
0.0293672
0.0309358
0.0326769
0.0346258
0.0368287
0.0393468
0.042262
0.0456867
0.0497778
0.054759
0.0609584
0.0688504
0.0794038
0.0938244
0.0138365
0.0144905
0.0151257
0.0157431
0.0163817
0.0170516
0.0177538
0.0184911
0.0192676
0.0200881
0.0209582
0.0218842
0.0228737
0.0239359
0.0250817
0.0263248
0.027682
0.0291744
0.0308288
0.0326795
0.0347712
0.0371634
0.0399356
0.0431975
0.0471022
0.0518684
0.0578161
0.065408
0.0755468
0.0893467
0.011981
0.0127202
0.013434
0.0141129
0.0148005
0.0155079
0.0162363
0.0169889
0.0177705
0.0185864
0.0194422
0.0203447
0.0213014
0.0223214
0.0234155
0.0245969
0.0258818
0.0272907
0.028849
0.0305897
0.0325558
0.0348041
0.0374116
0.0404839
0.0441697
0.0486815
0.0543309
0.0615695
0.0712202
0.0843206
0.00995151
0.0107858
0.011591
0.0123428
0.0130919
0.0138495
0.0146153
0.0153923
0.0161861
0.0170026
0.0178478
0.0187287
0.0196529
0.0206294
0.0216686
0.0227832
0.0239888
0.0253047
0.0267551
0.0283713
0.0301938
0.0322768
0.0346934
0.0375448
0.0409739
0.0451863
0.0504846
0.0573127
0.0664123
0.0787749
0.0077785
0.00872257
0.00964296
0.0104757
0.0112902
0.0121042
0.0129151
0.0137243
0.0145371
0.0153595
0.0161981
0.0170598
0.0179526
0.0188852
0.0198679
0.020913
0.0220357
0.0232545
0.0245924
0.0260788
0.027752
0.0296632
0.0318811
0.0345013
0.0376589
0.0415502
0.0464641
0.0528315
0.0613063
0.0728491
0.00530919
0.00636283
0.00755427
0.00856574
0.0094846
0.0103706
0.0112349
0.012082
0.0129191
0.0137547
0.0145965
0.015453
0.0163326
0.0172449
0.0182001
0.0192108
0.0202919
0.0214617
0.0227422
0.0241608
0.0257537
0.0275682
0.0296672
0.0321376
0.0351009
0.0387359
0.0432994
0.0491667
0.0568251
0.0671444
0.00093254
0.00195593
0.00372947
0.0051648
0.00639225
0.00754729
0.00866004
0.00973826
0.0107913
0.0118287
0.0128592
0.0138915
0.0149352
0.0160003
0.0170973
0.0182387
0.0194399
0.0207194
0.0220987
0.023603
0.025265
0.0271283
0.0292472
0.0316961
0.0345755
0.0380354
0.0422778
0.047566
0.0541074
0.0627259
0.0561885
0.0542155
0.0500005
0.0448312
0.0393903
0.0337755
0.0279796
0.0220382
0.0160109
0.00996036
0.00394603
-0.00197626
-0.00775574
-0.0133478
-0.0187145
-0.023825
-0.0286545
-0.0331835
-0.0373993
-0.0412934
-0.0448564
-0.0480811
-0.0509801
-0.0535574
-0.0558206
-0.0577943
-0.0595256
-0.0609976
-0.0618546
-0.0614228
0.0438806
0.0436375
0.0410628
0.0372055
0.0330089
0.0286519
0.0240994
0.0193552
0.0144603
0.00946662
0.00442907
-0.00059594
-0.00555196
-0.0103848
-0.0150446
-0.0194875
-0.0236769
-0.0275844
-0.0311884
-0.0344753
-0.0374429
-0.0400977
-0.0424379
-0.0444749
-0.0462274
-0.0477349
-0.0490551
-0.0501002
-0.0502997
-0.0490594
0.0369009
0.0373865
0.0355762
0.0324531
0.0289988
0.025402
0.0216167
0.0176325
0.0134785
0.00919682
0.00483466
0.000443954
-0.00392033
-0.00820278
-0.0123503
-0.0163145
-0.020054
-0.0235358
-0.0267355
-0.0296383
-0.0322383
-0.0345374
-0.0365436
-0.0382696
-0.0397352
-0.0409836
-0.0420776
-0.0429129
-0.042841
-0.0412133
0.0321266
0.0329528
0.0316125
0.0290185
0.0261015
0.0230391
0.0197847
0.0163259
0.0126875
0.00890658
0.0050264
0.00109587
-0.00283168
-0.00670106
-0.0104582
-0.0140529
-0.0174415
-0.0205886
-0.0234684
-0.0260647
-0.0283709
-0.030389
-0.0321276
-0.0335996
-0.0348248
-0.0358459
-0.036726
-0.0373619
-0.0371021
-0.0352908
0.0286466
0.0295976
0.0285432
0.0263334
0.02382
0.0211602
0.0183087
0.0152531
0.0120149
0.00862749
0.00513055
0.00157031
-0.00200176
-0.00553147
-0.00896486
-0.0122514
-0.0153466
-0.0182143
-0.0208279
-0.023171
-0.0252369
-0.0270277
-0.0285524
-0.029824
-0.0308621
-0.0317075
-0.0324218
-0.03291
-0.0325439
-0.0306614
0.0260003
0.0269697
0.0261007
0.0241816
0.0219825
0.0196365
0.0171008
0.014364
0.0114455
0.00837546
0.00519078
0.00193521
-0.0013417
-0.00458715
-0.00774804
-0.0107742
-0.0136212
-0.0162529
-0.0186425
-0.0207737
-0.0226398
-0.0242431
-0.0255925
-0.0267014
-0.0275887
-0.0282926
-0.0288729
-0.0292471
-0.0288181
-0.0269177
0.0239076
0.0248493
0.0241032
0.0224116
0.0204636
0.0183708
0.0160912
0.0136151
0.0109602
0.00815381
0.00523049
0.00223182
-0.000794566
-0.00379734
-0.00672455
-0.00952678
-0.0121602
-0.0145888
-0.0167864
-0.0187366
-0.0204331
-0.0218782
-0.0230811
-0.0240551
-0.0248186
-0.0254074
-0.0258804
-0.0261666
-0.0257038
-0.0238152
0.0222147
0.0230934
0.0224323
0.0209214
0.0191802
0.0172971
0.0152312
0.0129741
0.0105419
0.00795993
0.00526038
0.0024829
-0.000326647
-0.00311851
-0.00584199
-0.00844866
-0.0108954
-0.013147
-0.0151775
-0.0169711
-0.0185216
-0.0198316
-0.0209105
-0.0217716
-0.0224329
-0.0229279
-0.0233141
-0.0235319
-0.023054
-0.021194
0.0208028
0.0216004
0.0210059
0.0196443
0.018075
0.0163692
0.0144857
0.0124165
0.0101767
0.00778949
0.00528523
0.00270166
8.29315e-05
-0.00252274
-0.00506601
-0.00749956
-0.00978121
-0.0118764
-0.0137599
-0.0154163
-0.0168398
-0.0180333
-0.0190061
-0.0197718
-0.0203477
-0.0207658
-0.0210814
-0.0212461
-0.0207662
-0.0189436
0.0195955
0.0203003
0.019757
0.0185309
0.0171065
0.0155528
0.013828
0.0119233
0.00985267
0.00763762
0.00530665
0.00289579
0.000447516
-0.0019915
-0.00437326
-0.00665166
-0.00878552
-0.0107411
-0.0124938
-0.0140289
-0.0153408
-0.0164327
-0.0173141
-0.0179985
-0.0185029
-0.0188573
-0.0191153
-0.019239
-0.0187657
-0.0169846
0.018541
0.0191436
0.0186393
0.0175395
0.0162446
0.014822
0.0132372
0.0114792
0.00955994
0.00749943
0.0053246
0.0030698
0.00077588
-0.00151202
-0.00374731
-0.00588507
-0.00788519
-0.00971483
-0.0113501
-0.0127767
-0.0139897
-0.0149923
-0.0157941
-0.0164088
-0.0168527
-0.0171542
-0.0173647
-0.0174569
-0.0169961
-0.0152585
0.0175972
0.0181008
0.0176262
0.0166352
0.015465
0.0141567
0.0126971
0.0110719
0.00929008
0.00737036
0.00533818
0.00322629
0.00107391
-0.00107532
-0.0031762
-0.0051851
-0.00706293
-0.00877779
-0.0103065
-0.0116354
-0.0127598
-0.0136832
-0.0144152
-0.0149695
-0.015362
-0.0156194
-0.0157916
-0.0158592
-0.0154149
-0.0137214
0.0167347
0.0171406
0.0166942
0.0157989
0.0147438
0.0135413
0.0121942
0.0106909
0.00903586
0.00724616
0.00534601
0.00336662
0.00134562
-0.000674869
-0.00265107
-0.00454058
-0.00630546
-0.00791468
-0.00934585
-0.0105858
-0.0116302
-0.0124828
-0.0131531
-0.0136547
-0.0140033
-0.0142241
-0.0143648
-0.0144138
-0.0139892
-0.0123396
0.0159333
0.01624
0.0158232
0.0150157
0.0140621
0.0129644
0.0117178
0.0103273
0.0087909
0.0071229
0.00534646
0.00349139
0.00159376
-0.000305861
-0.0021651
-0.00394285
-0.00560227
-0.00711329
-0.00845423
-0.00961245
-0.010584
-0.0113726
-0.011988
-0.0124435
-0.0127546
-0.0129448
-0.0130599
-0.0130952
-0.0126924
-0.0110871
0.0151714
0.0153861
0.0150002
0.0142704
0.0134073
0.0124139
0.0112608
0.00997445
0.00854988
0.00699706
0.00533783
0.00360071
0.00182022
3.5342e-05
-0.00171298
-0.00338496
-0.00494489
-0.00636364
-0.00762029
-0.00870269
-0.00960724
-0.0103377
-0.0109038
-0.0113187
-0.0115976
-0.0117623
-0.011857
-0.011883
-0.011504
-0.00994387
0.0144318
0.0145651
0.0142105
0.0135537
0.0127733
0.0118756
0.0108168
0.00962606
0.00830775
0.00686525
0.00531832
0.00369433
0.00202627
0.000351537
-0.00129043
-0.0028612
-0.00432624
-0.00565739
-0.00683445
-0.00784581
-0.00868812
-0.00936526
-0.00988678
-0.0102658
-0.010517
-0.0106611
-0.0107401
-0.0107605
-0.010407
-0.0088944
0.0137041
0.0137639
0.013442
0.0128556
0.012151
0.0113388
0.010379
0.00927711
0.00806008
0.00672429
0.00528608
0.00377174
0.00221276
0.000644912
-0.00089394
-0.00236677
-0.00374029
-0.00498732
-0.00608843
-0.00703252
-0.00781652
-0.00844433
-0.0089254
-0.00927264
-0.00950036
-0.00962796
-0.00969555
-0.00971397
-0.00938809
-0.00792719
0.0129809
0.0129709
0.0126825
0.0121646
0.0115324
0.0107997
0.00993772
0.00892364
0.00780289
0.00657107
0.00523921
0.00383222
0.00238019
0.000917194
-0.000520561
-0.00189755
-0.00318175
-0.00434709
-0.00537491
-0.00625463
-0.00698345
-0.00756532
-0.00800951
-0.00832866
-0.0085368
-0.0086521
-0.00871253
-0.0087326
-0.00843638
-0.00703397
0.0122551
0.0121763
0.0119227
0.0114717
0.0109103
0.0102539
0.00948408
0.00856197
0.00753217
0.00640236
0.00517567
0.00387485
0.00252877
0.00116975
-0.000167761
-0.00144984
-0.00264588
-0.00373093
-0.00468719
-0.00550467
-0.00618082
-0.00671964
-0.00713021
-0.00742488
-0.00761723
-0.00772438
-0.00778205
-0.00780757
-0.00754345
-0.00620935
0.011518
0.0113729
0.0111553
0.01077
0.010279
0.009695
0.00901044
0.00818766
0.00724469
0.00621512
0.00509333
0.00389854
0.00265847
0.00140366
0.000166669
-0.00102032
-0.00212825
-0.00313343
-0.00401904
-0.00477569
-0.00540116
-0.00589947
-0.0062795
-0.00655324
-0.00673378
-0.00683711
-0.00689677
-0.00693201
-0.006703
-0.00545048
0.0107611
0.0105534
0.0103732
0.0100524
0.00963074
0.00911837
0.00851475
0.00779321
0.00693792
0.00600648
0.00498992
0.00390197
0.00276899
0.00161973
0.000484715
-0.000605837
-0.00162462
-0.0025494
-0.00336442
-0.00406105
-0.00463742
-0.00509758
-0.00545018
-0.00570678
-0.00587983
-0.00598428
-0.0060511
-0.00610084
-0.00591076
-0.00475686
0.00997515
0.00971055
0.00956985
0.00931266
0.00895916
0.00851873
0.00799456
0.00737136
0.00660911
0.00577314
0.00486283
0.00388353
0.00285976
0.00181856
0.000788187
-0.000203385
-0.00113083
-0.00197363
-0.00271733
-0.00335417
-0.00388274
-0.00430712
-0.00463562
-0.00487932
-0.00504988
-0.00516126
-0.00524142
-0.00531104
-0.00516443
-0.00412994
0.00914928
0.00883704
0.00873808
0.00854489
0.00825962
0.00789221
0.00744609
0.00691553
0.00625491
0.0055114
0.004709
0.00384123
0.00292991
0.00200052
0.00107878
0.000190097
-0.000642581
-0.00140074
-0.00207156
-0.00264835
-0.00313028
-0.00352143
-0.00382972
-0.0040655
-0.00423965
-0.00436457
-0.00446555
-0.00456154
-0.00446394
-0.00357285
0.0082684
0.00792385
0.00787068
0.00774276
0.00752643
0.00723307
0.0068644
0.00642196
0.0058703
0.00521925
0.00452568
0.00377293
0.00297839
0.0021658
0.00135809
0.000577639
-0.000155465
-0.000825246
-0.00142086
-0.001937
-0.00237353
-0.00273453
-0.00302728
-0.00326125
-0.00344619
-0.00359262
-0.00372276
-0.00385244
-0.00381107
-0.00308983
0.00731283
0.00695859
0.00695674
0.00689715
0.00675283
0.00653498
0.00624498
0.00588961
0.00544787
0.00489448
0.00431012
0.00367648
0.00300402
0.00231448
0.00162759
0.000962112
0.000334588
-0.000242147
-0.000759753
-0.00121465
-0.00160754
-0.00194235
-0.00222538
-0.00246494
-0.00266922
-0.00284678
-0.0030157
-0.00318781
-0.00321062
-0.00268546
0.00626435
0.00593792
0.0059912
0.00600156
0.00593371
0.00579481
0.00558564
0.00531767
0.00498234
0.00453327
0.00405808
0.0035483
0.00300429
0.00244548
0.00188804
0.00134629
0.000832298
0.000354822
-8.10591e-05
-0.000474113
-0.000826023
-0.00113936
-0.00141979
-0.00167412
-0.00190829
-0.00212814
-0.00234706
-0.00257096
-0.00266727
-0.00236311
0.00509119
0.00488842
0.00501047
0.00508036
0.00508454
0.00502303
0.0048922
0.00470658
0.00446861
0.00412902
0.00375932
0.00337733
0.00296987
0.00255328
0.00213947
0.00173692
0.00135143
0.000985836
0.000640359
0.000312663
-3.61866e-07
-0.000296659
-0.000583602
-0.000865542
-0.00114469
-0.00142289
-0.00170782
-0.00199744
-0.00218358
-0.00212289
0.00359971
0.00375383