/*--------------------------------*- C++ -*----------------------------------*\
  =========                 |
  \\      /  F ield         | OpenFOAM: The Open Source CFD Toolbox
   \\    /   O peration     | Website:  https://openfoam.org
    \\  /    A nd           | Version:  12
     \\/     M anipulation  |
\*---------------------------------------------------------------------------*/
FoamFile
{
    format      ascii;
    class       volScalarField;
    location    "200";
    object      pPrime2Mean;
}
// * * * * * * * * * * * * * * * * * * * * * * * * * * * * * * * * * * * * * //

dimensions      [0 4 -4 0 0 0 0];

internalField   nonuniform List<scalar> 
6750
(
0.00646227
0.00645263
0.00644028
0.00642934
0.00641821
0.00646713
0.00645391
0.00643314
0.00640848
0.0063827
0.00650004
0.00648364
0.00645667
0.0064221
0.00638497
0.0065598
0.00654232
0.00651328
0.00647542
0.00643487
0.00664296
0.00662695
0.00660026
0.00656509
0.00652742
0.00674374
0.00673146
0.0067108
0.00668298
0.00665305
0.00685484
0.00684799
0.0068361
0.00681908
0.00680058
0.00696855
0.00696822
0.00696687
0.00696295
0.00695843
0.00707768
0.00708435
0.00709433
0.00710456
0.00711535
0.00717619
0.00718975
0.0072109
0.00723519
0.00726135
0.00725951
0.00727934
0.00731069
0.00734791
0.00738832
0.00732471
0.00734981
0.00738972
0.00743786
0.00749045
0.00737041
0.0073995
0.0074459
0.00750236
0.00756431
0.00739657
0.00742825
0.00747883
0.0075407
0.00760881
0.00740425
0.00743711
0.00748954
0.00755388
0.00762484
0.00739523
0.0074279
0.00748008
0.00754412
0.00761475
0.00736946
0.00740062
0.0074504
0.00751136
0.00757847
0.00732536
0.00735358
0.00739867
0.00745361
0.0075139
0.00726215
0.00728607
0.00732422
0.00737029
0.0074206
0.00718012
0.00719854
0.00722774
0.00726245
0.00730008
0.00708093
0.00709291
0.00711165
0.00713311
0.00715612
0.00696775
0.00697276
0.00698017
0.0069874
0.00699486
0.00684535
0.00684333
0.00683938
0.00683241
0.00682453
0.00671993
0.00671142
0.00669697
0.00667699
0.00665521
0.00659881
0.00658493
0.00656182
0.00653117
0.00649811
0.00648976
0.00647224
0.00644323
0.00640539
0.00636482
0.00640014
0.00638123
0.00635002
0.00630967
0.00626645
0.00633573
0.006318
0.006289
0.00625208
0.00621252
0.00630001
0.00628558
0.00626295
0.0062361
0.00620806
0.00629403
0.0062834
0.00626954
0.00625689
0.00624425
0.00638135
0.00633129
0.00623558
0.00610079
0.0059293
0.00572286
0.00548216
0.00520789
0.00490272
0.00457066
0.00421572
0.00384659
0.00347128
0.00309896
0.00273886
0.00239919
0.00208653
0.00180534
0.00155772
0.00134337
0.00116023
0.00100773
0.000880746
0.000775805
0.000689721
0.000619454
0.000562485
0.000516507
0.000479852
0.000456671
0.00638679
0.00630405
0.00618247
0.00602632
0.00583694
0.00561548
0.00536345
0.00508314
0.00477812
0.00445242
0.0041095
0.00375803
0.00340421
0.0030555
0.0027191
0.00240136
0.00210738
0.00184067
0.00160311
0.0013952
0.0012164
0.0010628
0.000933808
0.00082605
0.000736634
0.00066308
0.00060306
0.000554212
0.000514027
0.000483141
0.00636405
0.00625588
0.00611406
0.00594251
0.00574103
0.00551071
0.00525327
0.00497139
0.00466913
0.00434995
0.00401844
0.00368226
0.00334657
0.00301752
0.00270082
0.00240138
0.00212313
0.00186885
0.00164012
0.00143742
0.00126025
0.00110745
0.000977127
0.000867026
0.000774795
0.000698171
0.000635001
0.000583045
0.000540435
0.000507748
0.00632743
0.00620263
0.00604631
0.00586385
0.00565517
0.00542066
0.00516183
0.00488157
0.00458385
0.00427137
0.00395011
0.00362614
0.00330416
0.00298953
0.00268705
0.00240084
0.00213414
0.0018893
0.00166772
0.00146987
0.00129546
0.00114374
0.00101315
0.000901868
0.000807851
0.000728986
0.000663037
0.000607894
0.000562341
0.000530037
0.00628636
0.00614985
0.00598258
0.00579178
0.00557843
0.00534218
0.00508433
0.00480752
0.00451526
0.00420981
0.00389771
0.00358372
0.00327236
0.00296849
0.00267646
0.00239998
0.00214199
0.00190461
0.00168911
0.00149594
0.00132486
0.00117507
0.00104529
0.000933877
0.000838959
0.000758513
0.000690307
0.000632094
0.000583929
0.000552037
0.00624728
0.00610182
0.00592639
0.00572924
0.00551248
0.00527595
0.00502026
0.0047477
0.00446101
0.0041624
0.00385814
0.00355214
0.00324885
0.00295284
0.0026683
0.00239883
0.00214729
0.00191574
0.00170536
0.00151654
0.00134894
0.00120168
0.00107345
0.000962647
0.000867462
0.000785968
0.000715923
0.000655212
0.000604891
0.000573619
0.00621423
0.00606179
0.00587996
0.00567818
0.005459
0.00522281
0.00496977
0.00470157
0.00441995
0.00412754
0.00382967
0.00352982
0.00323235
0.00294176
0.00266227
0.00239754
0.00215055
0.00192337
0.00171717
0.0015322
0.001368
0.0012235
0.00109724
0.000987521
0.00089253
0.000810424
0.000739032
0.000676399
0.000624375
0.000593923
0.00619055
0.00603252
0.00584554
0.00564004
0.00541945
0.00518367
0.00493327
0.00466899
0.00439162
0.0041044
0.00381133
0.00351577
0.00322207
0.00293474
0.00265816
0.00239623
0.0021521
0.00192796
0.00172497
0.00154329
0.00138223
0.00124051
0.00111642
0.0010081
0.000913719
0.00083132
0.000759028
0.000695077
0.000641759
0.000612136
0.00617925
0.00601657
0.00582502
0.00561625
0.00539457
0.00515929
0.00491109
0.00464993
0.00437589
0.00409248
0.00380252
0.0035094
0.00321749
0.00293143
0.00265584
0.00239495
0.00215215
0.0019298
0.00172907
0.00155002
0.00139173
0.00125265
0.00113081
0.00102413
0.00093071
0.000848501
0.000775782
0.000710855
0.000656544
0.000627595
0.00618331
0.00601645
0.00582041
0.00560832
0.0053854
0.00515061
0.00490382
0.00464459
0.00437284
0.00409158
0.00380296
0.0035104
0.00321832
0.0029316
0.00265521
0.00239372
0.00215082
0.00192906
0.00172963
0.00155249
0.00139651
0.00125985
0.00114026
0.00103543
0.000943206
0.000861664
0.000788924
0.000723318
0.000668234
0.000639713
0.00620575
0.00603474
0.00583383
0.00561784
0.00539308
0.00515826
0.00491209
0.00465349
0.00438272
0.00410182
0.00381265
0.00351868
0.00322445
0.00293518
0.00265621
0.00239253
0.00214815
0.00192579
0.0017267
0.00155073
0.00139655
0.00126203
0.00114463
0.00104177
0.000951085
0.00087056
0.000798087
0.000732056
0.000676373
0.000647993
0.00624995
0.0060743
0.00586768
0.00564677
0.00541925
0.00518349
0.00493674
0.00467742
0.00440604
0.00412356
0.00383183
0.00353438
0.00323596
0.00294217
0.00265884
0.00239138
0.00214413
0.00191998
0.00172025
0.00154469
0.00139178
0.0012591
0.00114381
0.00104304
0.000954117
0.000874911
0.000802898
0.000736654
0.000680566
0.000652049
0.00631977
0.00613852
0.00592501
0.00569779
0.00546637
0.00522792
0.00497902
0.00471753
0.00444359
0.00415744
0.00386096
0.00355779
0.00325301
0.00295267
0.00266314
0.00239026
0.00213871
0.00191157
0.00171022
0.0015343
0.0013821
0.00125095
0.00113768
0.00103905
0.000952025
0.000874192
0.000802949
0.000736755
0.000680504
0.000651623
0.00641991
0.00623148
0.00600946
0.00577404
0.00553681
0.00529385
0.0050409
0.00477536
0.0044966
0.00420441
0.00390073
0.0035894
0.00327591
0.00296686
0.00266917
0.00238916
0.00213182
0.00190045
0.00169646
0.00151944
0.00136744
0.0012375
0.0011261
0.00102958
0.00094459
0.000868265
0.000797977
0.000732138
0.000676042
0.000646641
0.00655602
0.00635837
0.00612573
0.0058797
0.00563439
0.00538454
0.00512503
0.00485307
0.00456677
0.00426578
0.00395208
0.00362984
0.00330506
0.00298496
0.00267704
0.00238807
0.00212337
0.00188647
0.00167882
0.00149994
0.00134764
0.00121861
0.00110891
0.00101448
0.000931555
0.000856892
0.000787842
0.000722753
0.000667246
0.000637305
0.00673525
0.00652589
0.00628013
0.00602057
0.00576425
0.00550437
0.00523534
0.00495369
0.00465644
0.00434324
0.00401622
0.00367992
0.00334097
0.00300727
0.00268686
0.00238696
0.00211327
0.0018695
0.00165715
0.00147563
0.00132251
0.00119404
0.00108587
0.000993514
0.000912723
0.000839968
0.000772567
0.000708784
0.000654487
0.000624238
0.00696696
0.00674296
0.00648117
0.0062044
0.00593331
0.00565945
0.00537709
0.00508125
0.00476867
0.00443901
0.00409463
0.00374061
0.00338427
0.00303411
0.00269872
0.0023858
0.0021014
0.0018494
0.00163131
0.00144636
0.00129181
0.00116354
0.00105669
0.000966367
0.000887978
0.000817574
0.000752457
0.000690815
0.000638658
0.000608708
0.00726379
0.00702164
0.00674027
0.00644137
0.00615059
0.00585777
0.0055565
0.00524076
0.00490728
0.00455581
0.00418918
0.00381314
0.00343564
0.00306579
0.0027127
0.00238452
0.00208762
0.00182601
0.00160112
0.00141192
0.00125535
0.00112688
0.00102123
0.000933051
0.000857414
0.00079012
0.0007283
0.000670096
0.000621526
0.000593049
0.00764312
0.00737813
0.00707245
0.00674491
0.0064279
0.00610929
0.00578154
0.00543848
0.00507695
0.00469702
0.00430219
0.00389891
0.00349582
0.00310259
0.00272883
0.00238305
0.00207182
0.00179917
0.00156637
0.0013721
0.00121297
0.00108405
0.00097965
0.000893958
0.000821756
0.000758699
0.000701816
0.000649114
0.000606342
0.000581309
0.00812896
0.00783446
0.00749786
0.00713265
0.00678038
0.00642619
0.00606222
0.00568216
0.00528341
0.00486669
0.00443628
0.00399947
0.00356556
0.00314478
0.00274712
0.0023813
0.0020539
0.00176877
0.00152695
0.00132683
0.00116471
0.00103532
0.000932593
0.000850299
0.000782905
0.000725923
0.000676508
0.000632606
0.000599026
0.000580532
0.00875489
0.00842137
0.00804437
0.00762876
0.00722786
0.00682474
0.00641122
0.0059815
0.00553369
0.00506954
0.0045944
0.00411645
0.00364565
0.00319265
0.0027676
0.00237919
0.00203372
0.00173471
0.00148284
0.00127625
0.00111096
0.000981501
0.000881475
0.000804346
0.000744258
0.000696671
0.000658832
0.000629155
0.000610126
0.000603167
0.00956806
0.00918099
0.00875022
0.00826572
0.00779741
0.00732663
0.0068453
0.0063487
0.00583624
0.00531111
0.0047799
0.00425171
0.003737
0.00324654
0.00279032
0.0023766
0.00201114
0.00169693
0.0014342
0.00122082
0.00105267
0.000924196
0.000828919
0.000760146
0.000711822
0.000679432
0.000660412
0.00065385
0.000658014
0.000671097
0.0106322
0.0101708
0.00966788
0.00908761
0.00852532
0.00796056
0.00738573
0.00679887
0.00620128
0.00559793
0.00499672
0.00440743
0.00384064
0.00330681
0.00281524
0.00237333
0.00198599
0.00165544
0.00138141
0.00116148
0.000991561
0.000866278
0.00077945
0.000724603
0.00069578
0.000688603
0.000700698
0.000732229
0.000773138
0.00082047
0.0120276
0.0114655
0.0108648
0.0101522
0.00945879
0.00876251
0.00805897
0.00735045
0.00664104
0.00593771
0.0052494
0.00458602
0.00395764
0.00337369
0.00284215
0.00236904
0.00195801
0.00161032
0.00132512
0.00109981
0.000930506
0.000812494
0.000740508
0.000709039
0.00071287
0.000747852
0.000811663
0.000905083
0.0010027
0.00110474
0.0138477
0.0131523
0.0124235
0.0115315
0.0106562
0.0097759
0.0088962
0.00802484
0.00716952
0.0063391
0.00554284
0.00478989
0.00408881
0.00344706
0.00287047
0.00236298
0.00192658
0.00156137
0.00126595
0.00103773
0.000873523
0.000769896
0.000723474
0.000730896
0.000788723
0.000893357
0.001041
0.001231
0.00141182
0.00159315
0.0161889
0.0153201
0.0144256
0.0132941
0.0121692
0.0110401
0.00992561
0.00884155
0.00779973
0.0068103
0.00588178
0.00502134
0.0042348
0.00352644
0.00289894
0.00235344
0.00188981
0.0015069
0.00120298
0.000976052
0.00082435
0.000746801
0.000743205
0.000813796
0.000958086
0.00117288
0.00145047
0.00178295
0.00207873
0.00236759
0.0191029
0.0180094
0.0168924
0.0154538
0.0140105
0.0125697
0.0111642
0.00981937
0.00855081
0.00736914
0.0062814
0.00529199
0.00440314
0.00361527
0.00292728
0.00233713
0.00184245
0.00144101
0.00113124
0.00091252
0.000785595
0.000752864
0.000818279
0.000986324
0.00125961
0.00163443
0.00209646
0.00262431
0.00308041
0.00351158
0.0227912
0.0213222
0.0198427
0.0180438
0.0162487
0.0144684
0.0127416
0.0110989
0.00956032
0.00813952
0.00684512
0.00568134
0.00464879
0.00374544
0.00296756
0.00231089
0.00177163
0.00134722
0.0010369
0.00084191
0.000765331
0.000811768
0.000986431
0.00129348
0.00173359
0.00230013
0.00297537
0.00373549
0.00444701
0.00513253
0.0285179
0.0266227
0.0247073
0.0224875
0.0202495
0.0179904
0.0157628
0.0136171
0.0115929
0.00972115
0.00802219
0.00650678
0.00517782
0.00403295
0.00306719
0.00227528
0.00165354
0.00120078
0.000918968
0.000812453
0.000885994
0.00114245
0.00158057
0.00219125
0.00295596
0.00384419
0.00481707
0.00585046
0.00675636
0.00765721
0.0463712
0.0429723
0.0391118
0.0351861
0.0312708
0.0273656
0.0235575
0.0199303
0.0165524
0.0134773
0.0107392
0.00835323
0.00631959
0.00462986
0.00327285
0.00223992
0.00152864
0.00114475
0.00110062
0.00141234
0.00209507
0.0031566
0.00459027
0.00637133
0.00845539
0.0107788
0.013262
0.0158845
0.0185755
0.0210078
0.00639566
0.00636253
0.00633364
0.00630643
0.00628237
0.00626316
0.0062511
0.0062487
0.00625861
0.00628369
0.00632703
0.00639216
0.0064832
0.00660512
0.006764
0.00696748
0.00722548
0.0075515
0.00796432
0.00849041
0.00916728
0.0100478
0.0112034
0.012722
0.0147039
0.0172585
0.0205032
0.0247896
0.0312812
0.0501708
0.00635866
0.00633456
0.00631411
0.00629749
0.00628749
0.00628535
0.00629258
0.00631108
0.00634309
0.00639131
0.00645889
0.00654961
0.00666799
0.00681957
0.00701117
0.00725143
0.00755167
0.0079272
0.00839905
0.0089965
0.00976067
0.0107488
0.012037
0.0137184
0.0158978
0.0187023
0.0223365
0.0272231
0.0342781
0.0542537
0.00636364
0.0063586
0.00635644
0.00635749
0.00636483
0.00638024
0.00640574
0.00644358
0.00649625
0.00656661
0.00665803
0.00677451
0.0069209
0.00710315
0.00732871
0.0076071
0.00795096
0.00837724
0.0089091
0.00957842
0.0104295
0.0115235
0.0129409
0.0147782
0.0171428
0.0201787
0.0241691
0.029604
0.0370559
0.0587829
0.00642065
0.00643495
0.00645183
0.00647163
0.00649784
0.00653261
0.00657822
0.00663716
0.00671217
0.00680639
0.00692346
0.00706768
0.00724428
0.00745964
0.00772183
0.00804119
0.00843141
0.00891076
0.00950381
0.010244
0.0111771
0.0123657
0.0138908
0.0158461
0.0183337
0.0215119
0.0257696
0.0317656
0.0394926
0.0636475
0.00652237
0.00655424
0.00658942
0.00662788
0.00667336
0.00672838
0.00679549
0.00687732
0.00697682
0.00709733
0.00724276
0.00741775
0.0076279
0.00788008
0.00818294
0.00854764
0.00898888
0.00952599
0.0101845
0.0109988
0.012015
0.0132953
0.0149184
0.0169714
0.0195462
0.0228134
0.0272907
0.0339019
0.0417002
0.0687926
0.00665848
0.00670582
0.00675801
0.00681466
0.00687943
0.00695507
0.00704437
0.00715018
0.00727562
0.00742421
0.0076001
0.0078082
0.00805444
0.00834615
0.00869251
0.0091054
0.00960024
0.0101972
0.0109222
0.0118098
0.0129053
0.0142689
0.0159745
0.0180992
0.0207212
0.0240232
0.0286832
0.0360382
0.0436928
0.0744103
0.00681745
0.00687826
0.00694591
0.0070199
0.00710358
0.00719979
0.00731147
0.00744164
0.0075936
0.00777109
0.00797845
0.00822081
0.00850436
0.0088368
0.00922776
0.00968965
0.0102384
0.0108946
0.0116841
0.0126408
0.0138086
0.0152442
0.0170153
0.0191861
0.0218179
0.025105
0.0299152
0.0382193
0.0455253
0.0807706
0.00698734
0.00705975
0.00714122
0.00723133
0.0073331
0.00744928
0.00758288
0.00773703
0.00791521
0.00812132
0.00835986
0.00863617
0.00895662
0.00932917
0.00976383
0.0102733
0.0108738
0.0115858
0.0124351
0.0134542
0.0146851
0.0161806
0.0180015
0.0201968
0.0228076
0.0260368
0.0309618
0.0404876
0.0472733
0.088163
0.00715641
0.00723876
0.00733236
0.00743711
0.00755564
0.00769061
0.00784497
0.00802194
0.00822507
0.00845838
0.00872652
0.00903496
0.00939023
0.00980047
0.0102759
0.0108294
0.0114771
0.0122394
0.0131413
0.0142143
0.0154981
0.0170422
0.0188999
0.0211039
0.0236708
0.0268088
0.0318046
0.0428727
0.0490288
0.0968208
0.00731406
0.00740481
0.00750887
0.00762652
0.00776007
0.00791205
0.00808533
0.00828311
0.00850897
0.00876702
0.00906195
0.00939934
0.0097859
0.0102298
0.0107414
0.0113335
0.0120221
0.0128271
0.0137732
0.0148906
0.0162173
0.0177997
0.019685
0.0218879
0.0243967
0.0274222
0.032437
0.0453803
0.0508869
0.106808
0.00745159
0.00754926
0.00766205
0.00779065
0.00793712
0.00810382
0.00829352
0.00850935
0.0087549
0.00903426
0.0093522
0.00971434
0.0101275
0.0105998
0.0111416
0.0117657
0.0124877
0.0133274
0.0143086
0.0154608
0.0168205
0.0184326
0.020339
0.0225363
0.0249811
0.0278867
0.0328674
0.0479781
0.0529152
0.117881
0.00756262
0.00766574
0.00778552
0.00792297
0.00807993
0.00825863
0.00846173
0.00869226
0.00895377
0.00925035
0.00958681
0.0099688
0.0104031
0.0108979
0.0114634
0.0121122
0.0128599
0.0137257
0.0147333
0.0159111
0.017295
0.0189288
0.0208518
0.0230429
0.0254247
0.0282166
0.0331193
0.0505785
0.0551123
0.129356
0.0076433
0.00775045
0.00787541
0.00801948
0.00818432
0.00837202
0.00858512
0.0088266
0.00909998
0.00940934
0.00975949
0.0101561
0.0106058
0.0111169
0.0116993
0.0123657
0.0131315
0.0140156
0.0150413
0.0162365
0.0176365
0.0192854
0.0212209
0.0234069
0.0257323
0.0284276
0.0332275
0.0530333
0.0573718
0.140143
0.00769228
0.00780203
0.00793039
0.00807881
0.0082488
0.00844236
0.00866194
0.00891051
0.00919156
0.00950918
0.00986813
0.010274
0.0107336
0.0112549
0.0118479
0.0125253
0.0133022
0.0141975
0.015234
0.0164395
0.0178489
0.019507
0.0214511
0.0236338
0.0259145
0.0285379
0.0332325
0.0550948
0.059427
0.148892
0.0077104
0.00782142
0.00795144
0.00810196
0.00827442
0.00847076
0.0086934
0.00894531
0.00922998
0.0095515
0.00991459
0.0103248
0.0107888
0.0113148
0.0119128
0.0125951
0.0133772
0.0142777
0.0153193
0.0165295
0.0179433
0.0196058
0.0215549
0.0237369
0.0259934
0.0285785
0.033193
0.0562796
0.0607239
0.153876
0.00770014
0.00781121
0.00794127
0.00809182
0.00826427
0.00846056
0.00868313
0.00893494
0.0092195
0.00954086
0.00990375
0.0103137
0.0107774
0.0113032
0.0119009
0.0125832
0.0133653
0.0142659
0.0153078
0.0165184
0.0179328
0.0195962
0.0215465
0.0237296
0.0259869
0.0285732
0.0331815
0.0562581
0.0607085
0.154067
0.00766145
0.00777136
0.00789988
0.00804842
0.00821843
0.0084119
0.00863131
0.00887963
0.00916036
0.00947755
0.00983594
0.0102411
0.0106998
0.0112203
0.0118129
0.0124899
0.0132669
0.0141627
0.0152001
0.0164069
0.0178183
0.019479
0.0214266
0.0236125
0.0258959
0.0285226
0.0332001
0.0550376
0.0593865
0.149439
0.0075921
0.00769951
0.00782481
0.00796919
0.00813422
0.00832193
0.00853489
0.00877609
0.00904903
0.00935776
0.00970705
0.0101025
0.0105511
0.011061
0.0116427
0.0123087
0.0130747
0.0139597
0.0149869
0.0161844
0.0175877
0.0192412
0.021182
0.0233731
0.025703
0.0284037
0.0331811
0.0529596
0.057321
0.140976
0.00749171
0.00759525
0.00771556
0.00785359
0.00801102
0.00819
0.00839314
0.00862349
0.00888457
0.00918043
0.00951586
0.00989656
0.0103294
0.0108229
0.0113874
0.0120358
0.0127839
0.0136511
0.0146609
0.0158421
0.0172306
0.0188705
0.0208002
0.0229978
0.0253864
0.0281864
0.0330691
0.0505111
0.0550668
0.130396
0.00736209
0.00746034
0.00757391
0.00770342
0.0078507
0.00801802
0.00820809
0.00842399
0.00866924
0.00894793
0.00926483
0.00962563
0.0100373
0.0105082
0.0110491
0.0116728
0.0123954
0.0132368
0.014221
0.0153774
0.0167428
0.0183618
0.0202758
0.0224807
0.0249353
0.0278532
0.0328247
0.0479365
0.0528876
0.119056
0.0072075
0.00729906
0.00740416
0.00752306
0.00765781
0.00781082
0.00798487
0.00818307
0.00840894
0.00866653
0.00896057
0.00929672
0.00968185
0.0101245
0.0106351
0.011227
0.0119164
0.0127235
0.0136729
0.0147952
0.0161281
0.0177178
0.0196108
0.0218222
0.0243446
0.0273891
0.0324129
0.0453785
0.0508877
0.108057
0.00703463
0.00711811
0.0072131
0.00731948
0.00743961
0.00757604
0.00773161
0.00790944
0.008113
0.00834624
0.00861382
0.00892126
0.00927534
0.00968446
0.0101591
0.0107125
0.0113612
0.0121255
0.0130309
0.0141089
0.0153989
0.0169499
0.018815
0.0210287
0.0236138
0.0267804
0.0318082
0.0429176
0.0490664
0.098096
0.00685237
0.00692635
0.00700964
0.00710184
0.00720565
0.00732374
0.00745902
0.00761454
0.00779367
0.00800022
0.00823869
0.00851444
0.00883403
0.00920564
0.00963964
0.0101491
0.0107505
0.0114646
0.0123171
0.0133408
0.0145771
0.0160786
0.0179063
0.0201129
0.0227477
0.0260175
0.0309988
0.0405801
0.0473552
0.0894334
0.00667135
0.00673431
0.00680434
0.00688092
0.00696714
0.00706574
0.00717958
0.00731164
0.00746513
0.00764368
0.00785156
0.00809389
0.00837693
0.0087086
0.00909888
0.00956062
0.0101101
0.010768
0.0115604
0.0125209
0.0136929
0.0151332
0.0169107
0.0190949
0.0217574
0.0250985
0.0299873
0.0383563
0.0456591
0.0820217
0.00650326
0.00655343
0.00660862
0.00666841
0.0067362
0.00681469
0.00690663
0.00701481
0.00714231
0.00729254
0.00746953
0.00767807
0.00792411
0.00821512
0.0085607
0.0089732
0.00946842
0.0100667
0.0107939
0.0116842
0.0127827
0.0141498
0.0158618
0.0180026
0.0206626
0.0240322
0.0287889
0.0362153
0.0438867
0.0756431
0.00635997
0.00639537
0.00643416
0.00647624
0.00652512
0.00658332
0.00665337
0.00673791
0.00683982
0.00696234
0.00710922
0.00728494
0.00749502
0.00774652
0.00804846
0.00841251
0.00885381
0.00939179
0.0100519
0.010868
0.0118862
0.0131694
0.0147995
0.0168719
0.0194921
0.0228392
0.0274269
0.0341155
0.0419631
0.0700201
0.00625292
0.00627142
0.0062924
0.00631609
0.00634583
0.00638381
0.00643236
0.00649397
0.00657135
0.00666753
0.00678601
0.00693094
0.00710745
0.00732207
0.00758322
0.00790178
0.00829187
0.00877189
0.0093661
0.0101076
0.0110425
0.0122344
0.0137683
0.0157471
0.0182869
0.021555
0.0259321
0.0320139
0.0398333
0.0648908
0.00619231
0.00619209
0.00619434
0.00619924
0.0062098
0.00622795
0.00625585
0.00629576
0.00635018
0.0064219
0.0065142
0.00663098
0.00677703
0.00695844
0.00718296
0.00746063
0.00780446
0.0082315
0.00876463
0.00943563
0.0102893
0.0113886
0.0128183
0.0146843
0.0171073
0.0202397
0.0243549
0.0298872
0.0374825
0.0600651
0.00618542
0.00616664
0.00615052
0.00613717
0.00612952
0.00612906
0.0061375
0.00615683
0.00618933
0.00623769
0.00630509
0.00639531
0.00651294
0.00666362
0.00685445
0.00709439
0.00739507
0.00777191
0.00824588
0.00884645
0.00961557
0.0106123
0.0119174
0.0136326
0.0158739
0.0187756
0.022534
0.0275302
0.0347719
0.0555689
0.00622388
0.00619547
0.00616938
0.00614386
0.00612063
0.00610155
0.00608901
0.00608565
0.00609426
0.00611783
0.00615955
0.00622308
0.00631271
0.0064336
0.00659202
0.00679575
0.00705481
0.00738288
0.00779917
0.00833058
0.00901542
0.00990847
0.0110851
0.0126413
0.0146856
0.0173335
0.0206989
0.0251074
0.0318178
0.0515104
0.0476953
0.0442375
0.0402636
0.0361929
0.0321271
0.0280789
0.0241409
0.0204004
0.0169271
0.0137746
0.010976
0.00854473
0.00647925
0.00476924
0.00340191
0.00236739
0.00166234
0.00129203
0.00126855
0.00160757
0.00232364
0.00342334
0.00489777
0.00671885
0.00883785
0.0111861
0.0136796
0.0162956
0.018961
0.0213638
0.0290786
0.027198
0.02526
0.0229787
0.0206684
0.0183391
0.0160485
0.0138501
0.0117842
0.00988081
0.00815897
0.00662775
0.00528853
0.00413768
0.00316916
0.00237686
0.0017563
0.00130549
0.00102568
0.000920597
0.000994454
0.00124964
0.00168453
0.00228965
0.00304611
0.00392283
0.00488117
0.00589855
0.00677841
0.00766646
0.0231237
0.0216791
0.0202029
0.0183796
0.0165464
0.0147248
0.0129584
0.0112812
0.00971454
0.00827215
0.00696197
0.00578716
0.00474728
0.00383927
0.00305853
0.00239992
0.00185872
0.00143132
0.00111587
0.000912488
0.000823391
0.00085271
0.00100575
0.00128738
0.00169955
0.00223733
0.00288545
0.00362333
0.00431426
0.00499398
0.0193003
0.0182206
0.0171056
0.0156522
0.0141882
0.0127267
0.0113024
0.00994183
0.0086608
0.00746975
0.00637534
0.00538146
0.00448986
0.00370044
0.00301164
0.00242084
0.00192494
0.00152078
0.00120572
0.000978135
0.000838146
0.000788261
0.00083343
0.000979842
0.00123199
0.00158769
0.00203354
0.00254882
0.00299842
0.00342982
0.016265
0.0154017
0.0145051
0.013366
0.0122355
0.0111044
0.00999022
0.0089078
0.00786797
0.00688039
0.00595347
0.00509441
0.0043091
0.00360184
0.00297523
0.00243012
0.00196585
0.00158054
0.00127157
0.00103619
0.00087238
0.000779611
0.000759162
0.000813385
0.000943829
0.00114851
0.00141959
0.00174788
0.00204285
0.0023315
0.0138327
0.0131391
0.0124078
0.0115145
0.0106433
0.00977321
0.00890627
0.00804806
0.00720462
0.00638398
0.00559525
0.00484788
0.00415084
0.00351194
0.00293719
0.00243042
0.00199327
0.00162532
0.00132458
0.00108816
0.000912958
0.00079636
0.000736432
0.000731579
0.000779882
0.000878537
0.00102352
0.00121283
0.00139485
0.00157651
0.0119511
0.0113912
0.01079
0.0100812
0.00939745
0.00871654
0.00803137
0.00734176
0.00664976
0.00596113
0.0052844
0.00462966
0.00400748
0.00342777
0.00289881
0.00242662
0.00201464
0.00166387
0.00137323
0.0011402
0.000961361
0.000832868
0.000750622
0.000710273
0.000707445
0.000738378
0.000800633
0.000894436
0.000994483
0.00109907
0.0105169
0.0100593
0.0095587
0.00898521
0.0084347
0.00788691
0.00733203
0.00676613
0.00618846
0.00560255
0.00501556
0.0044372
0.00387844
0.00335019
0.00286205
0.00242148
0.00203331
0.00169972
0.00142053
0.00119373
0.00101588
0.000882483
0.000788204
0.000727212
0.000693862
0.00068382
0.000694625
0.000726335
0.000769483
0.000819962
0.00942933
0.00904675
0.00862006
0.00814362
0.00768765
0.00723375
0.00677225
0.00629688
0.00580521
0.00529893
0.00478366
0.00426815
0.00376306
0.00327951
0.00282776
0.00241611
0.00205034
0.00173355
0.00146632
0.00124711
0.00107261
0.000938046
0.000837571
0.000764791
0.000713632
0.00067935
0.000659209
0.00065225
0.000657456
0.000672586
0.00860088
0.00827167
0.00789951
0.00749292
0.00710408
0.00671713
0.00632268
0.00591371
0.00548679
0.00504218
0.00458411
0.00412021
0.00366044
0.00321565
0.00279621
0.00241084
0.00206589
0.00176508
0.0015096
0.00129831
0.00112809
0.000994207
0.000890742
0.000811258
0.00074968
0.000701067
0.000662335
0.000631708
0.000612391
0.000605898
0.00796446
0.0076736
0.007342
0.00698563
0.00664521
0.00630642
0.00596064
0.00560065
0.00522252
0.00482559
0.004413
0.00399132
0.00356966
0.00315831
0.00276742
0.00240571
0.00207981
0.00179385
0.00154942
0.00134574
0.00117994
0.00104751
0.00094272
0.000859351
0.000791522
0.00073422
0.000684106
0.000638898
0.000603989
0.000584615
0.007471
0.00720871
0.00690787
0.00658883
0.00628339
0.00597937
0.00566901
0.00534524
0.00500382
0.0046436
0.00426696
0.00387963
0.00348986
0.00310721
0.0027413
0.00240066
0.00209194
0.00181947
0.0015851
0.00138837
0.00122671
0.0010959
0.000990554
0.000904788
0.000832969
0.000770156
0.000712733
0.00065853
0.000613736
0.00058686
0.00708619
0.00684547
0.00656848
0.00627766
0.00599796
0.00571947
0.0054349
0.00513771
0.00482367
0.00449148
0.00414309
0.00378355
0.00342028
0.00306204
0.00271779
0.00239567
0.00210218
0.0018417
0.00161627
0.00142567
0.00126763
0.00113827
0.0010326
0.00094512
0.000870457
0.000803759
0.000741606
0.000681873
0.000630937
0.000600044
0.00678569
0.00656172
0.00630375
0.00603473
0.00577437
0.00551436
0.00524827
0.00497021
0.00467623
0.00436521
0.00403886
0.00370167
0.00336026
0.00302255
0.00269682
0.00239072
0.00211051
0.00186051
0.00164284
0.00145747
0.00130243
0.00117415
0.00106802
0.000978967
0.000901924
0.000832395
0.000767161
0.000704137
0.000649609
0.000617042
0.00655183
0.00634139
0.00609901
0.00584691
0.00560095
0.00535425
0.00510091
0.00483617
0.00455661
0.00426138
0.0039521
0.00363273
0.00330914
0.00298848
0.00267834
0.00238588
0.00211704
0.00187601
0.00166492
0.00148389
0.00133118
0.0012035
0.00109662
0.0010059
0.000926662
0.000854957
0.000787675
0.000722843
0.000666517
0.000633825
0.0063718
0.00617245
0.00594289
0.00570394
0.00546849
0.00523099
0.00498608
0.0047302
0.00446078
0.00417718
0.00388095
0.00357559
0.00326631
0.00295956
0.00266233
0.00238126
0.00212196
0.00188844
0.00168279
0.00150522
0.00135413
0.00122655
0.00111857
0.00102599
0.000944711
0.000871213
0.000802549
0.000736894
0.000679965
0.000648093
0.00623608
0.00604571
0.00582645
0.00559758
0.00536948
0.00513785
0.00489837
0.00464802
0.00438549
0.00411028
0.00382379
0.00352918
0.00323113
0.0029355
0.00264872
0.00237696
0.00212549
0.00189808
0.00169677
0.00152176
0.00137163
0.00124365
0.00113428
0.00103975
0.000956499
0.000881459
0.000811852
0.000745983
0.000689171
0.000658505
0.00613725
0.00595396
0.00574277
0.00552133
0.00529812
0.00506997
0.00483363
0.00458648
0.00432828
0.00405876
0.00377921
0.00349252
0.003203
0.00291601
0.00263747
0.00237311
0.00212785
0.00190522
0.00170716
0.00153386
0.00138404
0.00125522
0.00114424
0.00104776
0.000962599
0.000886196
0.000815911
0.000750165
0.000693835
0.000664323
0.00606931
0.00589147
0.00568655
0.00547043
0.00525019
0.00502378
0.00478885
0.00454327
0.00428722
0.00402108
0.00374601
0.00346476
0.00318137
0.0029008
0.0026285
0.00236978
0.00212921
0.0019101
0.00171423
0.00154182
0.00139168
0.00126162
0.00114884
0.00105039
0.000963487
0.000885883
0.000815049
0.000749605
0.000693916
0.000665267
0.0060273
0.00585369
0.00565373
0.00544148
0.00522284
0.00499685
0.00476193
0.00451662
0.00426086
0.00399603
0.00372325
0.00344523
0.00316581
0.00288963
0.00262174
0.00236702
0.00212971
0.00191288
0.00171819
0.00154585
0.00139481
0.00126314
0.00114841
0.00104801
0.000959481
0.000880682
0.000809564
0.000744546
0.000689566
0.000661406
0.00600714
0.00583706
0.00564116
0.00543191
0.00521412
0.00498759
0.00475153
0.00450519
0.00424815
0.0039827
0.00371023
0.0034334
0.00315597
0.00288232
0.0026171
0.00236484
0.00212942
0.00191368
0.00171915
0.00154608
0.00139358
0.00125997
0.00114313
0.00104081
0.00095082
0.000871103
0.000799819
0.000735331
0.000681103
0.000653017
0.00600531
0.00583872
0.00564648
0.00543976
0.00522254
0.0049948
0.00475667
0.00450802
0.00424837
0.0039805
0.00370649
0.00342897
0.00315166
0.00287874
0.00261454
0.00236323
0.00212835
0.00191252
0.00171718
0.0015426
0.00138807
0.00125219
0.00113313
0.00102894
0.000937702
0.000857329
0.000786107
0.000722338
0.000668944
0.000640557
0.00601862
0.00585604
0.00566757
0.00546335
0.00524669
0.00501768
0.00477663
0.0045244
0.00426103
0.00398908
0.00371181
0.00343182
0.00315284
0.0028789
0.00261405
0.00236215
0.00212645
0.00190935
0.00171222
0.00153538
0.00137831
0.00123987
0.00111853
0.00101257
0.000920222
0.000839587
0.000768802
0.000705961
0.000653575
0.00062457
0.00604392
0.00588643
0.00570244
0.00550119
0.00528536
0.00505506
0.00481072
0.00455393
0.00428585
0.00400842
0.00372627
0.00344211
0.00315965
0.00288288
0.00261565
0.00236155
0.0021236
0.00190403
0.00170415
0.00152435
0.00136428
0.00122306
0.00109944
0.000991872
0.000898679
0.000818152
0.000748102
0.00068663
0.000635521
0.000605694
0.00607798
0.00592721
0.00574915
0.00555189
0.00533767
0.00510611
0.00485834
0.00459642
0.00432271
0.00403877
0.00375024
0.00346025
0.00317248
0.00289095
0.00261943
0.00236135
0.00211959
0.00189627
0.00169269
0.00150929
0.00134589
0.00120183
0.00107604
0.000967115
0.00087345
0.000793262
0.000724443
0.000664812
0.000615318
0.00058467
0.00611737
0.00597553
0.00580539
0.00561394
0.005402
0.00516985
0.00491888
0.00465176
0.00437181