/*--------------------------------*- C++ -*----------------------------------*\
  =========                 |
  \\      /  F ield         | OpenFOAM: The Open Source CFD Toolbox
   \\    /   O peration     | Website:  https://openfoam.org
    \\  /    A nd           | Version:  12
     \\/     M anipulation  |
\*---------------------------------------------------------------------------*/
FoamFile
{
    format      ascii;
    class       volVectorField;
    location    "200";
    object      U;
}
// * * * * * * * * * * * * * * * * * * * * * * * * * * * * * * * * * * * * * //

dimensions      [0 1 -1 0 0 0 0];

internalField   nonuniform List<vector> 
6750
(
(0.200065 -0.00312048 0)
(0.200334 -0.00958834 0)
(0.200601 -0.0155812 0)
(0.200831 -0.0211565 0)
(0.200689 -0.0263967 0)
(0.200037 -0.00347806 0)
(0.200271 -0.0101445 0)
(0.200458 -0.016052 0)
(0.200516 -0.0213263 0)
(0.200373 -0.0260399 0)
(0.200026 -0.00363718 0)
(0.200122 -0.0103565 0)
(0.200123 -0.0161209 0)
(0.19998 -0.0210915 0)
(0.19971 -0.0253518 0)
(0.20001 -0.00366791 0)
(0.199953 -0.0102919 0)
(0.199761 -0.0158481 0)
(0.199437 -0.0205365 0)
(0.199037 -0.0244787 0)
(0.199996 -0.00359767 0)
(0.199798 -0.00999832 0)
(0.199422 -0.0152917 0)
(0.19892 -0.0197069 0)
(0.198376 -0.0233919 0)
(0.199984 -0.00344414 0)
(0.199656 -0.00951091 0)
(0.199104 -0.014486 0)
(0.198422 -0.018612 0)
(0.197713 -0.0220477 0)
(0.199974 -0.00322185 0)
(0.199524 -0.00885722 0)
(0.198799 -0.0134559 0)
(0.197931 -0.0172606 0)
(0.197044 -0.020429 0)
(0.199965 -0.00294182 0)
(0.199398 -0.00806003 0)
(0.198505 -0.0122248 0)
(0.197451 -0.0156686 0)
(0.196378 -0.0185404 0)
(0.199956 -0.00261365 0)
(0.199281 -0.00714179 0)
(0.198227 -0.0108205 0)
(0.196995 -0.0138637 0)
(0.195739 -0.0164061 0)
(0.199949 -0.00224707 0)
(0.199175 -0.00612703 0)
(0.197976 -0.00927669 0)
(0.196579 -0.0118844 0)
(0.195151 -0.0140673 0)
(0.199943 -0.0018524 0)
(0.199084 -0.00504247 0)
(0.197758 -0.0076316 0)
(0.196219 -0.00977722 0)
(0.194641 -0.0115766 0)
(0.199938 -0.00144026 0)
(0.199011 -0.00391571 0)
(0.197583 -0.00592576 0)
(0.195927 -0.00759269 0)
(0.194226 -0.00899262 0)
(0.199935 -0.00102097 0)
(0.198957 -0.00277364 0)
(0.197453 -0.00419885 0)
(0.195712 -0.0053807 0)
(0.193918 -0.00637406 0)
(0.199931 -0.000603722 0)
(0.198926 -0.00164096 0)
(0.197371 -0.0024869 0)
(0.195573 -0.00318684 0)
(0.19372 -0.00377531 0)
(0.199921 -0.000200255 0)
(0.198921 -0.000537184 0)
(0.197334 -0.00081852 0)
(0.19551 -0.00104915 0)
(0.193626 -0.00124284 0)
(0.199921 0.00020059 0)
(0.198921 0.000538195 0)
(0.197334 0.000820147 0)
(0.19551 0.00105132 0)
(0.193626 0.00124547 0)
(0.199931 0.000604058 0)
(0.198926 0.00164197 0)
(0.197371 0.00248852 0)
(0.195573 0.003189 0)
(0.19372 0.00377793 0)
(0.199935 0.0010213 0)
(0.198957 0.00277465 0)
(0.197453 0.00420047 0)
(0.195712 0.00538285 0)
(0.193918 0.00637668 0)
(0.199938 0.0014406 0)
(0.199011 0.00391672 0)
(0.197583 0.00592737 0)
(0.195927 0.00759483 0)
(0.194226 0.00899522 0)
(0.199943 0.00185273 0)
(0.199084 0.00504347 0)
(0.197758 0.00763321 0)
(0.196219 0.00977935 0)
(0.194641 0.0115792 0)
(0.199949 0.0022474 0)
(0.199175 0.00612802 0)
(0.197976 0.00927829 0)
(0.196579 0.0118865 0)
(0.195152 0.0140699 0)
(0.199956 0.00261398 0)
(0.199281 0.00714278 0)
(0.198227 0.0108221 0)
(0.196995 0.0138658 0)
(0.195739 0.0164087 0)
(0.199965 0.00294214 0)
(0.199398 0.00806102 0)
(0.198505 0.0122264 0)
(0.197451 0.0156707 0)
(0.196378 0.0185429 0)
(0.199974 0.00322217 0)
(0.199524 0.0088582 0)
(0.198799 0.0134575 0)
(0.197931 0.0172627 0)
(0.197044 0.0204315 0)
(0.199984 0.00344446 0)
(0.199656 0.00951189 0)
(0.199104 0.0144876 0)
(0.198422 0.0186141 0)
(0.197713 0.0220502 0)
(0.199996 0.00359799 0)
(0.199798 0.0099993 0)
(0.199422 0.0152933 0)
(0.19892 0.019709 0)
(0.198376 0.0233945 0)
(0.20001 0.00366823 0)
(0.199953 0.0102929 0)
(0.199761 0.0158496 0)
(0.199437 0.0205386 0)
(0.199037 0.0244812 0)
(0.200026 0.00363749 0)
(0.200122 0.0103575 0)
(0.200123 0.0161224 0)
(0.19998 0.0210937 0)
(0.19971 0.0253544 0)
(0.200037 0.00347837 0)
(0.200271 0.0101455 0)
(0.200458 0.0160536 0)
(0.200516 0.0213284 0)
(0.200373 0.0260426 0)
(0.200065 0.00312077 0)
(0.200334 0.00958928 0)
(0.200601 0.0155828 0)
(0.200831 0.0211587 0)
(0.200689 0.0263995 0)
(0.19851 -0.0381709 0)
(0.196771 -0.0437663 0)
(0.19529 -0.0488913 0)
(0.194258 -0.0534927 2.80953e-22)
(0.19353 -0.0574586 0)
(0.193047 -0.0607281 0)
(0.192798 -0.0632348 -1.92349e-20)
(0.19277 -0.0648834 1.94047e-20)
(0.192943 -0.0655565 1.57554e-22)
(0.193245 -0.0651996 1.00887e-20)
(0.193649 -0.0636848 1.91628e-23)
(0.194076 -0.0608588 -1.26622e-23)
(0.194447 -0.0567916 -5.19508e-21)
(0.194678 -0.0515526 -5.15539e-21)
(0.194695 -0.0452851 -1.20371e-20)
(0.194443 -0.0381992 1.20413e-20)
(0.193892 -0.0305543 -4.83192e-21)
(0.193042 -0.0226313 -4.48355e-21)
(0.191922 -0.0147113 3.11865e-22)
(0.190582 -0.00705011 3.5406e-22)
(0.189073 0.000142134 8.60896e-21)
(0.18747 0.00675105 -1.26838e-22)
(0.185858 0.0126527 1.47289e-20)
(0.184296 0.0177902 -1.45986e-20)
(0.182834 0.0221529 0)
(0.181513 0.0257616 0)
(0.180364 0.0286577 -1.85282e-22)
(0.179411 0.0308937 0)
(0.178674 0.0325249 0)
(0.178146 0.0335767 0)
(0.197621 -0.0415323 0)
(0.196045 -0.0470376 0)
(0.19485 -0.0517298 0)
(0.194007 -0.0558203 -2.65541e-22)
(0.193398 -0.0592954 0)
(0.193009 -0.0621148 0)
(0.192839 -0.0642074 1.91549e-20)
(0.192874 -0.065476 -1.96154e-20)
(0.193089 -0.0658119 -1.48294e-22)
(0.193414 -0.0651831 0)
(0.193824 -0.0634245 0)
(0.19423 -0.0604539 -9.53927e-21)
(0.194568 -0.0563345 9.56931e-21)
(0.194757 -0.0511373 0)
(0.19473 -0.044999 -3.21048e-20)
(0.194441 -0.0381134 3.21051e-20)
(0.193864 -0.0307148 0)
(0.193002 -0.0230585 8.68242e-21)
(0.191884 -0.0153962 -8.72655e-21)
(0.190553 -0.00795862 0)
(0.189071 -0.000936116 0)
(0.187498 0.00555079 1.18992e-22)
(0.185901 0.0113926 -1.41437e-20)
(0.184346 0.0165315 1.42503e-20)
(0.182879 0.0209491 0)
(0.18154 0.0246568 0)
(0.180357 0.0276872 1.74477e-22)
(0.179351 0.0300857 0)
(0.178547 0.0319107 0)
(0.177953 0.0332385 0)
(0.196785 -0.0441215 0)
(0.195527 -0.0491164 0)
(0.194514 -0.0533901 0)
(0.193763 -0.0571468 1.955e-20)
(0.193227 -0.0603397 -1.97669e-20)
(0.19291 -0.0629051 2.06371e-20)
(0.192807 -0.0647601 -2.08311e-20)
(0.192899 -0.0658067 3.2095e-22)
(0.193158 -0.0659448 0)
(0.193514 -0.065149 0)
(0.193939 -0.0632331 -3.20367e-22)
(0.19434 -0.0601679 0)
(0.194656 -0.0560043 0)
(0.194806 -0.050816 -7.58312e-23)
(0.194728 -0.0447374 -5.28458e-20)
(0.194378 -0.0379551 5.28461e-20)
(0.193737 -0.0306922 7.01583e-23)
(0.192811 -0.0231888 0)
(0.191631 -0.0156812 0)
(0.190247 -0.00838371 2.54091e-22)
(0.188717 -0.00147381 0)
(0.187105 0.00491274 0)
(0.185475 0.0106897 -2.35659e-22)
(0.183887 0.0158006 -1.37291e-20)
(0.182389 0.020224 1.36012e-20)
(0.181017 0.0239673 -1.26101e-20)
(0.179795 0.027057 1.2453e-20)
(0.178741 0.0295312 0)
(0.177887 0.0314481 0)
(0.177308 0.0329523 0)
(0.196046 -0.0464483 0)
(0.195011 -0.0510235 -4.23292e-20)
(0.194102 -0.0549627 2.13432e-20)
(0.19342 -0.0584271 4.43596e-20)
(0.192955 -0.0613512 -4.48966e-20)
(0.192707 -0.0636636 2.2332e-20)
(0.192665 -0.0652789 0)
(0.192815 -0.0661015 7.01158e-22)
(0.19311 -0.0660486 0)
(0.193506 -0.0650756 0)
(0.193947 -0.0630073 1.13659e-20)
(0.194348 -0.05985 -1.07413e-20)
(0.194644 -0.0556432 0)
(0.194755 -0.0504641 7.96129e-23)
(0.194618 -0.0444453 -7.31744e-20)
(0.194192 -0.0377662 7.31749e-20)
(0.193462 -0.0306392 -7.3657e-23)
(0.192441 -0.0232906 0)
(0.191163 -0.0159422 -8.48439e-21)
(0.189682 -0.00879441 7.926e-21)
(0.18806 -0.00201394 2.42481e-22)
(0.186364 0.00427216 0)
(0.184661 0.00997852 -4.43936e-22)
(0.183006 0.0150527 0)
(0.181448 0.0194733 1.29687e-20)
(0.180022 0.0232449 -2.47107e-20)
(0.17875 0.0263896 2.33522e-20)
(0.177644 0.0289385 1.04751e-20)
(0.176738 0.0309454 -2.16329e-20)
(0.176195 0.0326261 0)
(0.195287 -0.0486645 0)
(0.194388 -0.0528754 4.75104e-20)
(0.193561 -0.0565024 -4.6687e-20)
(0.192951 -0.0596785 0)
(0.192556 -0.0623338 0)
(0.192371 -0.0643927 7.60182e-22)
(0.192388 -0.0657687 0)
(0.192591 -0.066367 -7.34647e-22)
(0.192924 -0.066127 1.15987e-20)
(0.193355 -0.0649683 -1.1758e-20)
(0.193808 -0.0627517 -1.16158e-20)
(0.194207 -0.0594978 1.13148e-20)
(0.194479 -0.0552426 3.37687e-22)
(0.194544 -0.050066 -1.63003e-22)
(0.19434 -0.0440992 -9.3111e-20)
(0.193828 -0.037516 9.31114e-20)
(0.192996 -0.0305189 1.44227e-22)
(0.191861 -0.0233221 -2.76002e-22)
(0.190464 -0.0161335 8.47943e-21)
(0.188861 -0.00914071 -8.17323e-21)
(0.187122 -0.00249932 -8.03227e-21)
(0.185316 0.00367234 7.72268e-21)
(0.18351 0.00929288 4.65243e-22)
(0.181763 0.0143134 0)
(0.180122 0.0187134 -4.01081e-22)
(0.178622 0.0224962 0)
(0.177286 0.0256806 0)
(0.17612 0.0282916 -2.22038e-20)
(0.175155 0.0303773 2.12352e-20)
(0.17464 0.0322255 0)
(0.194433 -0.0507713 4.89013e-20)
(0.193619 -0.0546341 -7.68733e-20)
(0.192867 -0.0579616 2.5328e-20)
(0.192328 -0.0608607 0)
(0.191998 -0.0632571 2.56124e-20)
(0.191873 -0.0650712 -2.50819e-20)
(0.191945 -0.0662153 2.46703e-20)
(0.192197 -0.0665978 -2.5562e-20)
(0.192566 -0.0661732 0)
(0.193025 -0.0648272 -7.72706e-22)
(0.193486 -0.0624658 1.18357e-20)
(0.193878 -0.0591115 -6.15862e-21)
(0.194119 -0.0548011 -9.2847e-22)
(0.194131 -0.0496171 -5.38079e-21)
(0.193852 -0.04369 -1.12683e-19)
(0.193247 -0.0371894 1.1268e-19)
(0.192305 -0.0303096 -4.81038e-21)
(0.191048 -0.0232542 7.69673e-22)
(0.18952 -0.0162194 -4.05278e-21)
(0.187785 -0.00938056 8.4379e-21)
(0.185913 -0.00288266 4.78849e-22)
(0.183981 0.00316414 0)
(0.182055 0.00868429 -1.40931e-20)
(0.180198 0.013633 1.43719e-20)
(0.178457 0.0179918 -1.32342e-20)
(0.176868 0.0217637 1.27085e-20)
(0.175453 0.0249655 7.24203e-22)
(0.174216 0.0276177 1.11691e-20)
(0.173182 0.0297619 -3.26082e-20)
(0.172677 0.0317529 2.30174e-20)
(0.193438 -0.0527526 -2.56102e-20)
(0.192678 -0.0562812 2.89279e-20)
(0.191995 -0.0593272 2.89706e-20)
(0.191521 -0.0619648 -2.93762e-20)
(0.191252 -0.0641142 2.74589e-20)
(0.191184 -0.0656928 -2.95084e-20)
(0.191308 -0.0666134 -8.82701e-22)
(0.191604 -0.0667889 0)
(0.192006 -0.0661794 1.30472e-20)
(0.192485 -0.064647 3.71187e-22)
(0.192948 -0.0621429 3.20549e-22)
(0.193324 -0.0586846 -1.28713e-20)
(0.193528 -0.0543119 -5.37872e-21)
(0.19348 -0.0491106 8.50924e-21)
(0.193121 -0.043211 -1.34359e-19)
(0.192417 -0.0367793 1.29126e-19)
(0.191361 -0.0300035 7.19079e-21)
(0.189979 -0.0230781 -5.27029e-21)
(0.188318 -0.0161888 -8.47425e-21)
(0.186445 -0.00950033 -1.19548e-22)
(0.184437 -0.00314765 -1.61551e-22)
(0.18237 0.00276725 7.5936e-21)
(0.180317 0.00817513 0)
(0.178339 0.0130358 3.83394e-22)
(0.176486 0.0173337 -1.18819e-20)
(0.174797 0.0210727 1.25559e-20)
(0.17329 0.0242686 -1.16382e-20)
(0.171971 0.0269389 1.07496e-20)
(0.17086 0.0291196 1.06369e-20)
(0.170343 0.031222 -1.20532e-20)
(0.192264 -0.0546038 0)
(0.191537 -0.0578168 2.71893e-20)
(0.190917 -0.0606012 -3.31135e-20)
(0.190504 -0.062992 3.11938e-20)
(0.190292 -0.0649051 -2.97869e-20)
(0.190278 -0.0662563 2.73436e-20)
(0.190451 -0.0669598 -2.76919e-20)
(0.190781 -0.0669369 -1.80634e-21)
(0.191214 -0.0661352 -8.8408e-22)
(0.191704 -0.0644199 -8.62212e-22)
(0.192163 -0.0617738 -8.30963e-22)
(0.192516 -0.0582076 4.00582e-22)
(0.192674 -0.053766 -6.34138e-21)
(0.192561 -0.0485382 3.14767e-21)
(0.192118 -0.0426553 -1.47263e-19)
(0.191312 -0.0362805 1.52623e-19)
(0.190142 -0.0295967 2.23732e-21)
(0.188635 -0.0227906 -4.17014e-21)
(0.186842 -0.0160389 2.64689e-22)
(0.184834 -0.00949627 1.02267e-21)
(0.18269 -0.00328881 4.6912e-22)
(0.180489 0.00248956 4.43632e-22)
(0.178305 0.00777602 8.41955e-22)
(0.176203 0.0125353 -1.39117e-20)
(0.174233 0.016755 1.36658e-20)
(0.172435 0.0204409 -1.19587e-20)
(0.170829 0.0236088 1.1044e-20)
(0.169418 0.0262746 -9.65083e-21)
(0.168221 0.0284701 1.15517e-20)
(0.167669 0.0306506 0)
(0.190876 -0.0563265 0)
(0.190168 -0.0592437 1.97453e-21)
(0.189606 -0.0617844 -2.7369e-20)
(0.18925 -0.0639413 4.15438e-22)
(0.189092 -0.065627 3.18532e-20)
(0.189127 -0.0667573 1.94642e-21)
(0.189347 -0.0672469 1.94694e-21)
(0.189702 -0.0670324 -1.30226e-20)
(0.190161 -0.0660322 1.60919e-20)
(0.190655 -0.0641397 -4.95986e-24)
(0.191103 -0.0613486 -6.8149e-21)
(0.191424 -0.0576701 6.85583e-21)
(0.191531 -0.0531537 -2.68862e-21)
(0.191347 -0.0478918 3.09714e-21)
(0.190816 -0.0420162 -1.68003e-19)
(0.189909 -0.0356883 1.68003e-19)
(0.188626 -0.0290863 2.40183e-21)
(0.186997 -0.0223902 -2.69028e-21)
(0.185077 -0.0157683 3.93185e-21)
(0.182939 -0.00936686 -5.19886e-21)
(0.180664 -0.00330332 -2.92438e-23)
(0.178334 0.00233591 7.01275e-21)
(0.176023 0.00749429 -7.85261e-21)
(0.173798 0.0121415 -7.80324e-22)
(0.17171 0.0162687 -8.00195e-22)
(0.1698 0.0198839 1.16749e-20)
(0.16809 0.0230038 -3.29807e-22)
(0.166581 0.0256437 -1.23508e-20)
(0.165292 0.0278332 0)
(0.164685 0.0300588 0)
(0.189239 -0.0579228 0)
(0.188544 -0.0605629 -3.5253e-20)
(0.188035 -0.0628752 4.09953e-22)
(0.187733 -0.0648089 5.22177e-22)
(0.187625 -0.0662747 6.51857e-20)
(0.187707 -0.0671895 -3.38116e-20)
(0.187965 -0.06747 -2.03468e-21)
(0.188345 -0.0670633 0)
(0.188822 -0.0658621 1.44264e-20)
(0.189312 -0.0637944 -1.46301e-20)
(0.189742 -0.0608561 7.12474e-21)
(0.190024 -0.0570617 -3.99134e-22)
(0.190074 -0.0524654 -6.8033e-21)
(0.189815 -0.0471631 1.92272e-22)
(0.189195 -0.0412875 -1.85249e-19)
(0.188187 -0.0349985 1.85332e-19)
(0.186794 -0.02847 -1.53776e-22)
(0.185049 -0.021876 -4.4949e-21)
(0.183009 -0.0153773 2.93463e-22)
(0.180749 -0.00911233 5.15734e-21)
(0.178352 -0.00319063 -7.78505e-21)
(0.175899 0.00230842 7.20278e-21)
(0.173468 0.00733429 0)
(0.171125 0.0118614 8.15571e-22)
(0.168923 0.0158848 -1.17958e-20)
(0.166903 0.0194148 2.36089e-20)
(0.165086 0.0224693 -3.06493e-22)
(0.163477 0.0250641 5.53098e-22)
(0.162093 0.0272282 -1.03285e-20)
(0.161415 0.0294677 0)
(0.187321 -0.0593947 -4.54125e-21)
(0.186636 -0.0617745 0)
(0.186178 -0.0638708 -2.21696e-21)
(0.185926 -0.06559 3.33264e-20)
(0.185865 -0.0668417 -3.62254e-20)
(0.18599 -0.0675448 3.50229e-20)
(0.18628 -0.0676214 -3.53218e-20)
(0.186684 -0.0670167 -1.66799e-20)
(0.187169 -0.0656139 3.5272e-20)
(0.18765 -0.063372 2.09411e-22)
(0.188054 -0.0602846 -1.47793e-20)
(0.188292 -0.0563714 7.03677e-21)
(0.188279 -0.0516915 -3.76898e-21)
(0.187943 -0.0463443 -5.05682e-21)
(0.187233 -0.0404635 -2.00284e-19)
(0.186126 -0.0342074 2.03052e-19)
(0.184627 -0.0277463 -3.59056e-21)
(0.182772 -0.0212482 -2.05841e-21)
(0.180622 -0.0148674 4.46126e-21)
(0.178249 -0.00873458 -8.64507e-21)
(0.17574 -0.00295234 3.26862e-23)
(0.173176 0.00240659 1.28529e-20)
(0.170634 0.0072973 -6.58233e-21)
(0.168181 0.0116989 -1.18641e-20)
(0.165871 0.0156097 1.16998e-20)
(0.163745 0.0190429 -1.0875e-20)
(0.161825 0.0220177 1.12612e-20)
(0.160116 0.0245509 -5.96773e-22)
(0.158636 0.0266724 0)
(0.157874 0.0288977 1.4245e-21)
(0.185091 -0.0607432 4.72294e-21)
(0.184413 -0.0628768 -4.00438e-20)
(0.184005 -0.0647667 3.83837e-20)
(0.183802 -0.0662778 2.36439e-21)
(0.183787 -0.0673194 2.35532e-21)
(0.183953 -0.0678124 0)
(0.184264 -0.0676896 -2.30509e-21)
(0.184691 -0.0668788 -1.98762e-20)
(0.185177 -0.0652769 3.38603e-20)
(0.185644 -0.0628601 -1.82896e-20)
(0.186016 -0.0596219 -1.00129e-21)
(0.186204 -0.0555879 7.30405e-21)
(0.186125 -0.0508222 -7.3433e-21)
(0.185709 -0.0454275 -2.03843e-22)
(0.18491 -0.0395384 -2.17337e-19)
(0.183706 -0.0333117 2.1725e-19)
(0.182107 -0.0269139 1.55959e-22)
(0.180151 -0.0205077 -4.45721e-21)
(0.177899 -0.0142407 4.43345e-21)
(0.175426 -0.00823677 5.00937e-22)
(0.172815 -0.00259172 -6.42968e-21)
(0.170151 0.00262779 1.3645e-20)
(0.16751 0.00738204 -5.59041e-21)
(0.164958 0.0116544 6.82005e-22)
(0.162549 0.0154466 0)
(0.160324 0.0187742 -6.79904e-22)
(0.158306 0.021658 -6.49745e-22)
(0.1565 0.0241161 9.60605e-21)
(0.154927 0.0261804 -8.80073e-21)
(0.154074 0.0283672 -1.48148e-21)
(0.182514 -0.0619676 0)
(0.181846 -0.0638661 -5.62023e-23)
(0.181486 -0.0655561 4.01672e-20)
(0.181332 -0.0668634 -4.09455e-20)
(0.181361 -0.0676974 -3.97344e-20)
(0.181563 -0.0679815 6.20426e-20)
(0.181898 -0.0676591 -1.73023e-20)
(0.18234 -0.0666364 -2.23743e-23)
(0.182821 -0.0648378 -2.3056e-21)
(0.183269 -0.0622449 0)
(0.183603 -0.058855 -8.07977e-21)
(0.183736 -0.0546994 1.57118e-20)
(0.183588 -0.0498475 -7.61437e-21)
(0.183092 -0.0444048 2.133e-22)
(0.182205 -0.0385067 -2.31912e-19)
(0.180909 -0.0323083 2.32e-19)
(0.179217 -0.0259722 -1.63194e-22)
(0.177168 -0.0196558 -4.41114e-21)
(0.174824 -0.0135002 8.37741e-21)
(0.172261 -0.00762292 -3.96143e-21)
(0.169564 -0.00211325 0)
(0.166813 0.00296773 7.46347e-22)
(0.164084 0.00758513 -7.65673e-23)
(0.161445 0.0117262 -5.98387e-21)
(0.158947 0.0153957 1.45594e-20)
(0.156632 0.0186116 -9.7957e-21)
(0.154524 0.0213958 -9.03259e-21)
(0.152627 0.0237681 9.44007e-21)
(0.150964 0.0257632 -6.51741e-23)
(0.150017 0.0278914 0)
(0.179556 -0.0630648 0)
(0.178901 -0.0647359 -3.97125e-20)
(0.178592 -0.0662297 4.32549e-20)
(0.178486 -0.0673356 3.96738e-20)
(0.178558 -0.0679632 -4.31975e-20)
(0.178793 -0.0680402 -2.31345e-20)
(0.17915 -0.0675124 8.25782e-22)
(0.179602 -0.0662748 2.2957e-20)
(0.180074 -0.0642807 4.82517e-21)
(0.180498 -0.0615114 0)
(0.180789 -0.0579699 0)
(0.180864 -0.0536939 -6.82065e-21)
(0.180645 -0.0487573 8.35323e-21)
(0.180069 -0.0432684 0)
(0.179097 -0.037363 -2.45279e-19)
(0.177713 -0.0311942 2.45276e-19)
(0.175935 -0.0249206 0)
(0.173802 -0.018694 4.06371e-21)
(0.171379 -0.0126494 -4.80689e-21)
(0.16874 -0.00689777 0)
(0.165967 -0.00152244 0)
(0.163143 0.00342079 -1.47553e-21)
(0.160341 0.00790142 4.50405e-21)
(0.157627 0.0119102 -3.02853e-22)
(0.155053 0.0154547 -4.14106e-21)
(0.152659 0.0185546 -8.58113e-21)
(0.150469 0.0212334 8.89436e-21)
(0.148488 0.0235121 8.02512e-21)
(0.146743 0.0254285 -8.39136e-21)
(0.145702 0.0274822 0)
(0.17618 -0.0640291 0)
(0.175546 -0.0654747 0)
(0.175288 -0.0667752 0)
(0.175232 -0.0676807 -4.19624e-20)
(0.175348 -0.0681007 2.05299e-20)
(0.17561 -0.067973 2.50884e-20)
(0.175992 -0.0672295 2.71991e-21)
(0.176447 -0.0657783 2.0497e-20)
(0.176909 -0.0635889 -1.14577e-21)
(0.177303 -0.0606436 -1.98692e-20)
(0.177548 -0.0569523 -1.13224e-21)
(0.177563 -0.0525585 -2.11276e-21)
(0.177272 -0.0475409 -4.69049e-21)
(0.176617 -0.0420101 3.5132e-21)
(0.175562 -0.0361017 -2.57123e-19)
(0.174097 -0.0299665 2.5713e-19)
(0.17224 -0.0237587 2.5583e-21)
(0.170035 -0.0176243 -1.83143e-21)
(0.167543 -0.0116921 9.88199e-22)
(0.16484 -0.0060667 4.14117e-22)
(0.162007 -0.0008257 -5.84652e-21)
(0.159124 0.00398008 6.40042e-22)
(0.156263 0.00832416 5.15133e-21)
(0.153487 0.0122004 -5.09202e-22)
(0.150849 0.0156187 3.54107e-21)
(0.148388 0.0186003 4.01253e-21)
(0.146126 0.0211698 -7.85652e-21)
(0.144071 0.0233494 0)
(0.14225 0.0251803 0)
(0.141118 0.0271477 0)
(0.172347 -0.0648481 -4.76432e-20)
(0.17174 -0.0660698 5.02043e-20)
(0.171538 -0.067178 0)
(0.171534 -0.0678822 -2.36138e-20)
(0.171694 -0.0680928 2.68595e-20)
(0.171985 -0.0677574 2.2725e-20)
(0.172388 -0.066791 -2.89732e-20)
(0.172845 -0.0651285 0)
(0.173292 -0.0627436 -2.63964e-21)
(0.173653 -0.0596241 0)
(0.17385 -0.0557863 3.3985e-24)
(0.173801 -0.0512798 9.09429e-24)
(0.173438 -0.0461875 1.00126e-21)
(0.172706 -0.0406216 4.5328e-22)
(0.171574 -0.0347174 -2.67584e-19)
(0.170034 -0.0286225 2.67569e-19)
(0.168108 -0.0224863 -3.14811e-22)
(0.16584 -0.016449 -5.47689e-22)
(0.163293 -0.0106327 -4.23247e-23)
(0.16054 -0.00513581 -4.51287e-23)
(0.157661 -3.03675e-05 0)
(0.154734 0.00463752 6.63057e-22)
(0.151828 0.00884502 0)
(0.149005 0.0125887 -2.74101e-21)
(0.146316 0.0158805 3.73212e-21)
(0.1438 0.0187429 2.67286e-21)
(0.141478 0.0212009 -3.05531e-21)
(0.139358 0.0232783 0)
(0.13747 0.0250189 6.84028e-21)
(0.136253 0.0268916 -7.21119e-21)
(0.168014 -0.0655056 0)
(0.167444 -0.0665045 7.01878e-23)
(0.167301 -0.0674191 5.32679e-20)
(0.167355 -0.0679191 -5.09487e-20)
(0.167557 -0.0679191 3.12048e-21)
(0.167882 -0.0673674 -6.11308e-21)
(0.168303 -0.0661751 2.9762e-21)
(0.16876 -0.0643026 0)
(0.169188 -0.0617238 0)
(0.169514 -0.0584334 0)
(0.169659 -0.0544548 1.22428e-21)
(0.169547 -0.0498432 -7.45984e-21)
(0.169113 -0.0446851 1.20304e-20)
(0.168307 -0.0390942 -5.88549e-21)
(0.167102 -0.0332042 -2.74103e-19)
(0.165495 -0.0271594 2.77166e-19)
(0.16351 -0.0211036 -3.47922e-21)
(0.161192 -0.0151707 6.49803e-21)
(0.158602 -0.00947619 -4.37288e-21)
(0.155814 -0.00411207 -4.02111e-22)
(0.152904 0.000855099 -2.90631e-22)
(0.149947 0.00538362 0)
(0.147011 0.00945401 0)
(0.144156 0.0130652 -4.4391e-22)
(0.14143 0.0162306 6.78847e-22)
(0.138871 0.0189736 -2.47699e-22)
(0.136501 0.0213195 -4.33188e-21)
(0.134326 0.0232932 4.032e-21)
(0.132382 0.0249408 1.02709e-22)
(0.131087 0.0267136 0)
(0.163134 -0.0659788 -5.25415e-20)
(0.16261 -0.0667587 4.87132e-20)
(0.162534 -0.0674749 2.30403e-20)
(0.162649 -0.0677651 -2.68069e-20)
(0.162896 -0.0675532 -2.87433e-20)
(0.163258 -0.0667733 2.94712e-20)
(0.163695 -0.0653575 2.44373e-20)
(0.16415 -0.0632755 -2.18551e-20)
(0.164558 -0.0605057 1.25798e-20)
(0.164846 -0.0570501 -1.12968e-20)
(0.164938 -0.0529389 1.09249e-20)
(0.164762 -0.0482328 -5.35119e-21)
(0.164258 -0.0430213 -3.9225e-21)
(0.163382 -0.0374185 2.30877e-22)
(0.16211 -0.0315564 -2.81738e-19)
(0.160445 -0.0255746 2.81716e-19)
(0.158411 -0.0196111 -1.45181e-22)
(0.156055 -0.0137929 -2.09082e-21)
(0.153437 -0.00822855 -1.20507e-21)
(0.150628 -0.00300358 3.01097e-21)
(0.147703 0.00182082 -1.68874e-21)
(0.144733 0.0062072 1.77345e-21)
(0.141783 0.0101391 -2.8577e-21)
(0.13891 0.0136174 2.52335e-21)
(0.136162 0.0166567 1.44939e-21)
(0.133574 0.0192808 -1.44852e-21)
(0.131167 0.021515 -1.28378e-21)
(0.12895 0.0233847 1.45786e-21)
(0.126957 0.0249382 4.4847e-21)
(0.125592 0.0266086 -4.29139e-21)
(0.157656 -0.0662407 -3.45345e-21)
(0.157184 -0.0668052 -5.47184e-20)
(0.157184 -0.0673147 6.0192e-20)
(0.157364 -0.06739 0)
(0.157663 -0.0669584 -3.46059e-21)
(0.158062 -0.0659442 0)
(0.158515 -0.0643067 -3.31005e-21)
(0.158967 -0.0620175 2.44798e-20)
(0.159353 -0.0590618 -2.63821e-20)
(0.1596 -0.0554494 1.41239e-21)
(0.159638 -0.0512173 -2.61367e-21)
(0.159399 -0.0464309 -1.18616e-21)
(0.158828 -0.041182 -5.4032e-22)
(0.157886 -0.0355847 -2.39644e-22)
(0.156555 -0.0297677 -2.84704e-19)
(0.154841 -0.0238657 2.84694e-19)
(0.152771 -0.01801 1.50693e-22)
(0.15039 -0.01232 2.49011e-22)
(0.147759 -0.00689702 -3.45969e-22)
(0.144946 -0.00182012 0)
(0.142022 0.00285495 -1.86737e-22)
(0.139055 0.00709478 -2.05154e-21)
(0.136107 0.0108856 2.34559e-21)
(0.133233 0.0142301 8.37091e-23)
(0.130477 0.0171433 0)
(0.127874 0.0196491 -7.78556e-24)
(0.125443 0.0217726 0)
(0.123194 0.0235393 7.09493e-22)
(0.121164 0.0249989 -6.39437e-22)
(0.119738 0.0265663 1.69664e-22)
(0.151513 -0.0662581 -5.43818e-20)
(0.151108 -0.0666037 5.71319e-20)
(0.151192 -0.0668982 9.66646e-23)
(0.151441 -0.0667553 3.2158e-20)
(0.1518 -0.0660903 -5.40506e-20)
(0.152236 -0.0648431 3.25418e-20)
(0.152705 -0.0629856 3.40729e-21)
(0.153154 -0.0604934 3.8168e-23)
(0.153515 -0.0573602 0)
(0.153721 -0.0536031 -1.45858e-21)
(0.153704 -0.0492657 -7.51671e-21)
(0.153402 -0.0444174 1.15532e-20)
(0.152767 -0.0391518 5.37479e-22)
(0.151765 -0.0335817 -1.52511e-21)
(0.150383 -0.0278318 -2.82541e-19)
(0.148631 -0.0220307 2.85539e-19)
(0.146537 -0.0163022 -1.35489e-21)
(0.144147 -0.0107577 -2.0015e-22)
(0.14152 -0.00549076 2.6227e-21)
(0.13872 -0.000573771 -2.2389e-21)
(0.135815 0.00394291 1.92843e-22)
(0.132869 0.00802974 0)
(0.129941 0.0116755 1.6211e-22)
(0.127082 0.0148839 -8.61674e-23)
(0.124334 0.0176705 -3.82187e-22)
(0.12173 0.0200587 1.29268e-21)
(0.119288 0.0220727 -5.66949e-22)
(0.117019 0.0237379 1.57769e-22)
(0.114961 0.025105 1.61678e-22)
(0.113483 0.0265704 -3.37376e-22)
(0.14463 -0.0659831 0)
(0.144309 -0.066104 0)
(0.144484 -0.0661752 -3.38074e-20)
(0.144814 -0.0658061 2.73221e-20)
(0.145235 -0.0649008 0)
(0.14571 -0.063423 -3.66038e-21)
(0.146197 -0.0613487 -3.60907e-21)
(0.146639 -0.0586612 -3.40256e-21)
(0.146974 -0.0553624 0)
(0.147137 -0.0514774 0)
(0.147064 -0.0470553 -1.38345e-21)
(0.146701 -0.0421692 5.27702e-21)
(0.146006 -0.0369131 -5.79961e-21)
(0.14495 -0.0313976 -2.40651e-22)
(0.143527 -0.0257421 -2.80078e-19)
(0.14175 -0.0200683 2.80143e-19)
(0.139647 -0.0144913 1.34389e-22)
(0.137264 -0.00911399 -9.23298e-22)
(0.134659 -0.00402177 1.28993e-21)
(0.131891 0.000719922 0)
(0.129024 0.00506609 0)
(0.126118 0.00899093 0)
(0.123229 0.0124854 0)
(0.120402 0.0155541 -2.58898e-22)
(0.117679 0.0182125 -1.33754e-22)
(0.115089 0.0204831 0)
(0.112651 0.0223889 -2.57391e-21)
(0.110374 0.0239545 2.08964e-21)
(0.1083 0.025231 0)
(0.106779 0.0265968 0)
(0.136918 -0.0653514 -3.9828e-21)
(0.136697 -0.0652399 0)
(0.136975 -0.0650834 0)
(0.137395 -0.0644737 0)
(0.137883 -0.0633288 0)
(0.138398 -0.0616231 0)
(0.138901 -0.0593387 3.686e-21)
(0.139335 -0.056468 1.78773e-21)
(0.139641 -0.0530215 -1.2755e-20)
(0.139758 -0.0490313 2.80433e-21)
(0.139629 -0.044552 2.39504e-20)
(0.139207 -0.039659 -1.60818e-20)
(0.138456 -0.0344458 7.0216e-22)
(0.137355 -0.0290191 4.08295e-21)
(0.135902 -0.0234923 -2.71012e-19)
(0.134113 -0.0179783 2.70969e-19)
(0.132018 -0.0125831 1.55581e-21)
(0.129662 -0.00740021 -5.56707e-22)
(0.127098 -0.00250631 -2.14097e-21)
(0.124384 0.00204031 1.39644e-21)
(0.121577 0.00620002 -6.01784e-22)
(0.118733 0.00995062 3.34268e-22)
(0.115903 0.0132849 1.93022e-22)
(0.113129 0.0162082 2.64415e-22)
(0.110449 0.0187352 0)
(0.10789 0.0208872 0)
(0.10547 0.0226855 0)
(0.1032 0.0241534 0)
(0.101121 0.0253417 0)
(0.0995673 0.0266108 -3.59361e-22)
(0.128263 -0.064276 8.20439e-21)
(0.128163 -0.0639258 -3.27462e-20)
(0.128558 -0.0635292 3.40233e-20)
(0.129075 -0.0626731 0)
(0.129631 -0.0612919 -3.19928e-20)
(0.130188 -0.0593645 3.69739e-20)
(0.130704 -0.0568823 -3.1658e-20)
(0.131127 -0.0538472 2.67845e-20)
(0.131399 -0.0502782 0)
(0.131468 -0.0462143 1.03833e-20)
(0.131283 -0.041714 -2.87927e-21)
(0.130804 -0.0368542 -1.55713e-20)
(0.130003 -0.0317263 5.2989e-21)
(0.128866 -0.0264318 1.64125e-21)
(0.127397 -0.0210762 -2.57739e-19)
(0.125612 -0.0157629 2.55015e-19)
(0.123545 -0.0105874 9.46991e-22)
(0.121238 -0.00563294 5.53307e-22)
(0.118739 -0.000967197 -1.06274e-21)
(0.116103 0.00335896 9.67035e-22)
(0.113381 0.00731134 -5.40204e-22)
(0.110623 0.0108712 -2.52548e-22)
(0.107875 0.0140329 -4.94735e-21)
(0.105176 0.0168019 3.96329e-21)
(0.10256 0.0191921 -4.70047e-21)
(0.100053 0.0212227 5.33751e-21)
(0.0976685 0.022913 0)
(0.0954194 0.0242846 -5.64184e-21)
(0.0933482 0.0253869 5.46232e-21)
(0.0917725 0.0265623 9.65798e-22)
(0.118527 -0.0626337 2.61635e-20)
(0.118569 -0.0620375 -3.40603e-20)
(0.119093 -0.0613893 -3.00375e-20)
(0.11971 -0.0602898 3.56957e-20)
(0.120336 -0.0586782 3.75195e-20)
(0.120931 -0.0565419 -7.45237e-20)
(0.121456 -0.0538828 5.22434e-20)
(0.121861 -0.050712 -1.38334e-20)
(0.122096 -0.0470569 0)
(0.122113 -0.0429621 -1.211e-20)
(0.121871 -0.0384893 1.08921e-20)
(0.121339 -0.0337151 -6.2438e-22)
(0.120495 -0.0287271 -1.94059e-21)
(0.119335 -0.0236199 2.73163e-21)
(0.117865 -0.0184895 -2.34779e-19)
(0.116106 -0.0134282 2.33588e-19)
(0.11409 -0.00852003 8.55237e-22)
(0.111857 -0.00383712 -4.53174e-22)
(0.109451 0.000562436 -3.24541e-23)
(0.106921 0.0046354 -1.71507e-21)
(0.104313 0.00835303 1.72749e-21)
(0.10167 0.0116998 6.47661e-22)
(0.0990325 0.0146715 3.61708e-21)
(0.0964353 0.0172732 -9.59352e-21)
(0.0939081 0.0195175 1.28657e-20)
(0.0914739 0.0214213 -6.33997e-21)
(0.0891461 0.0230011 -8.07399e-21)
(0.0869366 0.0242764 7.81559e-21)
(0.0848885 0.0252943 6.53744e-21)
(0.0833034 0.0263784 -8.15439e-21)
(0.107524 -0.0602432 4.08856e-20)
(0.10773 -0.0593906 4.80509e-21)
(0.108389 -0.0584943 -5.72404e-21)
(0.109107 -0.0571583 -3.71526e-20)
(0.109799 -0.0553311 -4.34715e-21)
(0.110425 -0.0530105 6.39352e-21)
(0.110949 -0.0502085 5.7383e-23)
(0.111328 -0.0469459 0)
(0.111518 -0.0432571 0)
(0.11148 -0.0391915 -1.21523e-20)
(0.111181 -0.034812 1.38329e-20)
(0.1106 -0.0301929 6.28832e-22)
(0.109725 -0.0254162 0)
(0.108557 -0.0205675 5.17908e-22)
(0.107107 -0.0157314 -2.0453e-19)
(0.105399 -0.0109877 2.03466e-19)
(0.103464 -0.00640766 3.4021e-22)
(0.101337 -0.00205147 0)
(0.0990584 0.00203285 3.26854e-23)
(0.0966696 0.00580993 -2.37784e-21)
(0.0942101 0.0092564 2.22002e-21)
(0.0917169 0.0123598 -3.93684e-22)
(0.0892239 0.0151169 0)
(0.0867606 0.0175321 1.68761e-22)
(0.0843527 0.0196162 1.80021e-21)
(0.0820203 0.0213832 -1.12649e-21)
(0.0797751 0.0228465 1.05694e-20)
(0.0776283 0.0240229 -1.33816e-23)
(0.0756233 0.0249561 4.41243e-22)
(0.0740444 0.0259497 -8.20385e-21)
(0.0950038 -0.0568231 -3.82112e-20)
(0.0953882 -0.0557231 3.26974e-20)
(0.0961803 -0.054588 0)
(0.0969915 -0.053035 -3.40388e-20)
(0.097737 -0.0510238 4.00412e-20)
(0.0983803 -0.048563 -1.90635e-20)
(0.0988902 -0.0456746 3.13386e-20)
(0.0992305 -0.0423878 -1.44488e-20)
(0.0993661 -0.0387428 0)
(0.099268 -0.0347916 0)
(0.0989147 -0.0305965 5.91674e-21)
(0.0982938 -0.026227 -5.88864e-21)
(0.0974028 -0.0217569 0)
(0.096249 -0.0172605 1.95376e-22)
(0.0948484 -0.0128092 -1.63448e-19)
(0.0932247 -0.0084685 1.63413e-19)
(0.0914068 -0.0042956 -3.58372e-23)
(0.0894268 -0.000338101 0)
(0.0873185 0.00336657 1.22197e-21)
(0.0851152 0.00679103 -1.12372e-21)
(0.082849 0.00991722 0)
(0.0805495 0.0127354 0)
(0.0782438 0.015243 6.79407e-21)
(0.075956 0.0174434 -1.28091e-20)
(0.0737071 0.0193447 5.43314e-21)
(0.0715139 0.0209579 -1.24301e-20)
(0.069386 0.0222928 1.38635e-20)
(0.0673339 0.0233627 0)
(0.0654001 0.0242072 -1.30207e-20)
(0.0638497 0.0251071 1.0289e-20)
(0.0806065 -0.0519262 -3.74841e-20)
(0.0811672 -0.0506072 3.64603e-20)
(0.082075 -0.0492653 -3.86456e-20)
(0.082956 -0.0475429 6.4945e-23)
(0.0837296 -0.0454121 4.24073e-22)
(0.0843651 -0.0428912 5.6922e-20)
(0.0848386 -0.0400109 -1.77652e-20)
(0.0851231 -0.0368069 -1.94805e-21)
(0.0851943 -0.0333231 1.34177e-20)
(0.0850343 -0.0296115 -2.55181e-20)
(0.084633 -0.0257306 1.20078e-20)
(0.0839883 -0.0217424 4.62106e-21)
(0.0831063 -0.0177095 -5.62138e-21)
(0.0820002 -0.0136925 2.05745e-21)
(0.0806891 -0.00974737 -1.11566e-19)
(0.0791963 -0.00592362 1.1093e-19)
(0.0775474 -0.00226338 -3.04966e-22)
(0.0757692 0.00119908 1.80806e-21)
(0.0738878 0.00443719 -1.26297e-21)
(0.0719283 0.00743156 -5.30932e-21)
(0.0699142 0.0101693 1.16543e-20)