/*--------------------------------*- C++ -*----------------------------------*\
  =========                 |
  \\      /  F ield         | OpenFOAM: The Open Source CFD Toolbox
   \\    /   O peration     | Website:  https://openfoam.org
    \\  /    A nd           | Version:  12
     \\/     M anipulation  |
\*---------------------------------------------------------------------------*/
FoamFile
{
    format      ascii;
    class       volVectorField;
    location    "200";
    object      UMean;
}
// * * * * * * * * * * * * * * * * * * * * * * * * * * * * * * * * * * * * * //

dimensions      [0 1 -1 0 0 0 0];

internalField   nonuniform List<vector> 
6750
(
(0.200075 -0.00306437 0)
(0.200381 -0.00927535 0)
(0.200684 -0.014927 0)
(0.200946 -0.0201145 0)
(0.200859 -0.0249467 0)
(0.200036 -0.00346293 0)
(0.20029 -0.00991392 0)
(0.200508 -0.0155127 0)
(0.200607 -0.0204355 0)
(0.200518 -0.0247856 0)
(0.200026 -0.00363086 0)
(0.200134 -0.0101584 0)
(0.200164 -0.0156431 0)
(0.200063 -0.0203018 0)
(0.199847 -0.0242514 0)
(0.200009 -0.00366717 0)
(0.199964 -0.0101227 0)
(0.1998 -0.0154307 0)
(0.199517 -0.019844 0)
(0.199167 -0.0235148 0)
(0.199995 -0.00360191 0)
(0.199807 -0.00985619 0)
(0.199458 -0.0149305 0)
(0.198996 -0.0191028 0)
(0.198499 -0.0225483 0)
(0.199983 -0.00345228 0)
(0.199664 -0.00939294 0)
(0.199137 -0.0141756 0)
(0.198492 -0.0180876 0)
(0.197829 -0.0213119 0)
(0.199972 -0.00323259 0)
(0.199529 -0.00876025 0)
(0.198828 -0.0131912 0)
(0.197996 -0.0168086 0)
(0.197153 -0.0197919 0)
(0.199963 -0.00295393 0)
(0.199402 -0.00798112 0)
(0.198531 -0.0120015 0)
(0.197512 -0.0152834 0)
(0.196482 -0.0179949 0)
(0.199954 -0.002626 0)
(0.199283 -0.00707839 0)
(0.19825 -0.0106349 0)
(0.197052 -0.0135405 0)
(0.195838 -0.0159467 0)
(0.199946 -0.00225875 0)
(0.199175 -0.00607699 0)
(0.197996 -0.00912559 0)
(0.196632 -0.0116193 0)
(0.195248 -0.0136892 0)
(0.19994 -0.0018627 0)
(0.199083 -0.00500405 0)
(0.197776 -0.00751241 0)
(0.19627 -0.00956676 0)
(0.194735 -0.0112757 0)
(0.199935 -0.00144869 0)
(0.199008 -0.00388752 0)
(0.197599 -0.00583622 0)
(0.195976 -0.00743373 0)
(0.194318 -0.00876483 0)
(0.199931 -0.00102719 0)
(0.198954 -0.00275457 0)
(0.197468 -0.00413701 0)
(0.195759 -0.00527043 0)
(0.194008 -0.00621577 0)
(0.199928 -0.000607586 0)
(0.198922 -0.00163017 0)
(0.197385 -0.00245108 0)
(0.19562 -0.00312269 0)
(0.193809 -0.00368306 0)
(0.199918 -0.000201626 0)
(0.198917 -0.000534094 0)
(0.197348 -0.00080732 0)
(0.195555 -0.00102879 0)
(0.193715 -0.00121339 0)
(0.199918 0.000201566 0)
(0.198917 0.000534088 0)
(0.197348 0.000807413 0)
(0.195555 0.00102899 0)
(0.193715 0.00121369 0)
(0.199928 0.000607525 0)
(0.198922 0.00163017 0)
(0.197385 0.00245118 0)
(0.19562 0.00312289 0)
(0.193809 0.00368335 0)
(0.199931 0.00102713 0)
(0.198954 0.00275457 0)
(0.197468 0.00413711 0)
(0.195759 0.00527063 0)
(0.194008 0.00621607 0)
(0.199935 0.00144863 0)
(0.199008 0.00388751 0)
(0.197599 0.00583631 0)
(0.195976 0.00743394 0)
(0.194318 0.00876513 0)
(0.19994 0.00186265 0)
(0.199083 0.00500405 0)
(0.197776 0.00751251 0)
(0.19627 0.00956696 0)
(0.194735 0.011276 0)
(0.199946 0.0022587 0)
(0.199175 0.006077 0)
(0.197996 0.00912569 0)
(0.196632 0.0116195 0)
(0.195248 0.0136896 0)
(0.199954 0.00262595 0)
(0.199283 0.00707839 0)
(0.19825 0.010635 0)
(0.197052 0.0135408 0)
(0.195838 0.015947 0)
(0.199963 0.00295388 0)
(0.199402 0.00798114 0)
(0.198531 0.0120016 0)
(0.197512 0.0152837 0)
(0.196482 0.0179952 0)
(0.199972 0.00323256 0)
(0.199529 0.00876027 0)
(0.198828 0.0131913 0)
(0.197996 0.0168089 0)
(0.197153 0.0197921 0)
(0.199983 0.00345226 0)
(0.199664 0.00939297 0)
(0.199137 0.0141758 0)
(0.198492 0.0180878 0)
(0.197829 0.0213122 0)
(0.199995 0.0036019 0)
(0.199807 0.00985623 0)
(0.199458 0.0149307 0)
(0.198996 0.0191029 0)
(0.198499 0.0225485 0)
(0.200009 0.00366718 0)
(0.199964 0.0101227 0)
(0.1998 0.0154308 0)
(0.199517 0.0198441 0)
(0.199167 0.0235149 0)
(0.200026 0.00363087 0)
(0.200134 0.0101584 0)
(0.200164 0.0156432 0)
(0.200063 0.0203019 0)
(0.199847 0.0242515 0)
(0.200036 0.00346295 0)
(0.20029 0.00991396 0)
(0.200508 0.0155128 0)
(0.200607 0.0204356 0)
(0.200518 0.0247857 0)
(0.200075 0.00306438 0)
(0.200381 0.00927538 0)
(0.200684 0.014927 0)
(0.200946 0.0201146 0)
(0.200859 0.0249467 0)
(0.199018 -0.035675 0)
(0.197543 -0.0406719 0)
(0.196321 -0.0452021 0)
(0.195525 -0.0492261 2.42498e-23)
(0.195014 -0.0526476 0)
(0.194732 -0.0554153 0)
(0.194668 -0.057471 -2.07947e-21)
(0.194809 -0.058728 2.11219e-21)
(0.19513 -0.0590815 2.21502e-23)
(0.19557 -0.0584729 1.35693e-21)
(0.196098 -0.0567638 5.48496e-23)
(0.196636 -0.0538482 3.90477e-23)
(0.197106 -0.0497735 -7.52456e-22)
(0.197427 -0.044607 -7.7193e-22)
(0.197525 -0.0384883 -1.80204e-21)
(0.197348 -0.0316229 1.80272e-21)
(0.196865 -0.0242646 -6.79335e-22)
(0.19608 -0.0166893 -5.54361e-22)
(0.195022 -0.00917214 1.47962e-22)
(0.193742 -0.00196083 1.79788e-22)
(0.192299 0.00474433 9.0952e-22)
(0.190769 0.0108284 -1.07303e-23)
(0.189237 0.0161778 6.16374e-22)
(0.187762 0.0207462 -6.10941e-22)
(0.186396 0.0245315 0)
(0.185179 0.0275618 0)
(0.184143 0.0298841 1.09753e-23)
(0.183312 0.031557 0)
(0.182715 0.032648 0)
(0.182326 0.0331966 0)
(0.198255 -0.0387532 0)
(0.196935 -0.0436523 0)
(0.195977 -0.0477803 0)
(0.195351 -0.0513376 -2.29733e-23)
(0.194948 -0.0543151 0)
(0.194751 -0.0566788 0)
(0.194759 -0.0583649 3.04407e-21)
(0.19496 -0.0592836 -3.1411e-21)
(0.195322 -0.0593391 -2.08724e-23)
(0.19579 -0.0584823 0)
(0.196327 -0.056559 0)
(0.196854 -0.0535156 -1.37647e-21)
(0.197301 -0.0493958 1.3808e-21)
(0.19759 -0.044269 0)
(0.197656 -0.0382686 -4.42318e-21)
(0.19745 -0.0315844 4.42479e-21)
(0.196949 -0.0244469 0)
(0.196157 -0.0171069 1.11521e-21)
(0.195103 -0.00981174 -1.12273e-21)
(0.193834 -0.00278608 0)
(0.192414 0.00378699 0)
(0.190906 0.0097873 1.01043e-23)
(0.18938 0.0151143 -8.65772e-22)
(0.187902 0.0197188 8.68588e-22)
(0.18652 0.0235904 0)
(0.185274 0.0267477 0)
(0.18419 0.0292287 -1.02879e-23)
(0.18329 0.0310826 0)
(0.182605 0.0323711 0)
(0.182139 0.0331553 0)
(0.197531 -0.0411316 0)
(0.196501 -0.0455584 0)
(0.195708 -0.0493049 0)
(0.195168 -0.0525618 3.84495e-21)
(0.194833 -0.0552881 -3.88692e-21)
(0.194707 -0.0574275 4.06803e-21)
(0.194783 -0.0589045 -4.10625e-21)
(0.195046 -0.0596277 5.65854e-23)
(0.19546 -0.0595096 0)
(0.195972 -0.0584993 0)
(0.19654 -0.0564392 -5.6236e-23)
(0.197079 -0.0533101 0)
(0.197524 -0.0491488 0)
(0.197795 -0.0440272 -1.03102e-23)
(0.197829 -0.0380769 -6.45592e-21)
(0.19758 -0.031481 6.45689e-21)
(0.197029 -0.0244594 6.49565e-24)
(0.196183 -0.0172487 0)
(0.195076 -0.010082 0)
(0.193756 -0.00316928 1.1813e-23)
(0.192286 0.00331639 0)
(0.190734 0.0092443 0)
(0.189168 0.0145338 -1.1127e-23)
(0.187647 0.0191354 1.67527e-22)
(0.186221 0.0230353 -1.65943e-22)
(0.184928 0.0262482 8.88748e-22)
(0.183792 0.0288068 -8.86565e-22)
(0.182831 0.0307548 0)
(0.182077 0.0321542 0)
(0.181589 0.0331198 0)
(0.196887 -0.0432628 0)
(0.196059 -0.0473022 -9.59267e-21)
(0.195362 -0.0507453 4.76479e-21)
(0.194889 -0.053741 1.02123e-20)
(0.194624 -0.0562299 -1.03414e-20)
(0.194569 -0.0581473 5.13796e-21)
(0.194714 -0.059415 0)
(0.195045 -0.0599426 1.60014e-22)
(0.195514 -0.0596561 0)
(0.196083 -0.0584866 0)
(0.196688 -0.0562943 2.0097e-21)
(0.197253 -0.0530818 -1.89519e-21)
(0.197704 -0.0488801 0)
(0.197962 -0.0437641 1.08244e-23)
(0.197961 -0.0378637 -7.82013e-21)
(0.197659 -0.0313556 7.82444e-21)
(0.197039 -0.0244495 -6.82196e-24)
(0.196113 -0.0173696 0)
(0.194918 -0.0103352 -2.54757e-22)
(0.193507 -0.00354381 2.42612e-22)
(0.191947 0.00284125 -6.86619e-24)
(0.190309 0.00869761 0)
(0.188661 0.0139443 3.25796e-23)
(0.187064 0.0185353 0)
(0.185567 0.0224561 -1.3014e-21)
(0.184207 0.0257183 2.82039e-21)
(0.183007 0.0283503 -3.3449e-21)
(0.181981 0.0303895 -2.28282e-21)
(0.18116 0.031895 4.04422e-21)
(0.18067 0.0330396 0)
(0.196217 -0.0452888 0)
(0.195513 -0.0489955 1.24829e-20)
(0.194895 -0.0521594 -1.22424e-20)
(0.194493 -0.0549008 0)
(0.194302 -0.0571548 0)
(0.194319 -0.0588525 2.05347e-22)
(0.194534 -0.0599132 0)
(0.194934 -0.0602476 -1.67506e-22)
(0.195463 -0.059795 2.54116e-21)
(0.196089 -0.0584619 -2.60472e-21)
(0.196735 -0.0561404 -2.17854e-21)
(0.197327 -0.0528403 2.12014e-21)
(0.197784 -0.0485924 5.25309e-23)
(0.198025 -0.0434743 -2.08519e-23)
(0.197986 -0.0376147 -8.50275e-21)
(0.197623 -0.0311851 8.50889e-21)
(0.196923 -0.0243864 5.09799e-24)
(0.195902 -0.0174316 -9.2327e-25)
(0.1946 -0.0105274 -1.53153e-22)
(0.193076 -0.00385976 1.50927e-22)
(0.191403 0.00241816 5.47206e-22)
(0.189653 0.00819149 -5.36156e-22)
(0.187898 0.0133829 -3.41435e-23)
(0.186201 0.0179489 0)
(0.18461 0.0218755 7.628e-23)
(0.183165 0.0251724 0)
(0.181887 0.0278647 0)
(0.180786 0.0299844 5.36968e-21)
(0.179892 0.0315853 -5.10924e-21)
(0.179397 0.0328984 0)
(0.195455 -0.047216 1.46095e-20)
(0.194831 -0.0506103 -2.28612e-20)
(0.19429 -0.0535106 7.46046e-21)
(0.193962 -0.0560113 0)
(0.193844 -0.0580426 7.3162e-21)
(0.193933 -0.0595307 -7.13823e-21)
(0.19422 -0.0603933 6.60816e-21)
(0.194688 -0.0605433 -6.80439e-21)
(0.195279 -0.0599271 0)
(0.195959 -0.0584312 -1.82062e-22)
(0.196644 -0.0559822 2.32529e-21)
(0.197258 -0.0525902 -1.35918e-21)
(0.197717 -0.0482884 -3.09849e-22)
(0.197936 -0.0431568 -7.61252e-22)
(0.197852 -0.0373239 -8.44508e-21)
(0.197423 -0.0309575 8.44331e-21)
(0.196636 -0.0242515 -1.99507e-23)
(0.195512 -0.0174091 1.51635e-22)
(0.194094 -0.0106266 4.29988e-22)
(0.192448 -0.00407901 -5.72861e-22)
(0.190648 0.00208991 -7.21029e-23)
(0.188773 0.00777244 0)
(0.186896 0.0128964 2.66426e-21)
(0.185083 0.0174218 -2.73931e-21)
(0.183384 0.0213359 3.20212e-21)
(0.181838 0.0246478 -3.03344e-21)
(0.180468 0.0273805 -2.29207e-22)
(0.179283 0.0295618 -3.42737e-21)
(0.178308 0.0312401 9.4085e-21)
(0.177794 0.0327003 -6.42018e-21)
(0.194562 -0.0490351 -8.41971e-21)
(0.193995 -0.0521349 9.5068e-21)
(0.193526 -0.054792 9.32338e-21)
(0.193272 -0.0570694 -9.44777e-21)
(0.193227 -0.0588915 8.49732e-21)
(0.193387 -0.0601808 -9.10561e-21)
(0.193746 -0.0608539 -2.86138e-22)
(0.194279 -0.0608281 0)
(0.19493 -0.0600483 3.27714e-21)
(0.195659 -0.0583916 -2.15802e-22)
(0.196378 -0.0558153 -2.64816e-22)
(0.197009 -0.0523269 -2.62002e-21)
(0.197462 -0.0479627 -7.35578e-22)
(0.197654 -0.0428062 1.06783e-21)
(0.197519 -0.036986 -7.83261e-21)
(0.197018 -0.0306673 7.52132e-21)
(0.196142 -0.0240384 -1.17383e-22)
(0.194911 -0.0172949 1.82067e-22)
(0.193375 -0.0106237 1.02832e-21)
(0.191603 -0.00419035 3.78055e-22)
(0.189673 0.00187016 3.17104e-22)
(0.187667 0.00745724 -1.53389e-21)
(0.185661 0.0125043 0)
(0.183723 0.0169752 -1.64681e-22)
(0.181905 0.0208593 3.87543e-21)
(0.180249 0.0241664 -4.04898e-21)
(0.178778 0.0269185 4.24802e-21)
(0.1775 0.0291406 -3.94353e-21)
(0.176435 0.0308764 -3.51703e-21)
(0.175885 0.0324568 4.00591e-21)
(0.193506 -0.050748 0)
(0.19298 -0.0535755 9.50403e-21)
(0.192582 -0.0560106 -1.15458e-20)
(0.192399 -0.0580808 1.05739e-20)
(0.192426 -0.0597056 -1.01107e-20)
(0.192657 -0.0608048 8.72434e-21)
(0.193087 -0.0612948 -8.85602e-21)
(0.193678 -0.0611002 -5.49175e-22)
(0.194388 -0.0601524 -2.51032e-22)
(0.195158 -0.0583373 -2.24028e-22)
(0.195904 -0.0556323 -1.84617e-22)
(0.196543 -0.0520418 7.65589e-23)
(0.196983 -0.0476071 -8.55673e-22)
(0.19714 -0.0424149 5.49605e-22)
(0.19695 -0.0365946 -5.54986e-21)
(0.196374 -0.0303098 5.75655e-21)
(0.195406 -0.0237443 -2.93721e-22)
(0.19407 -0.017087 2.72555e-22)
(0.192417 -0.0105171 -4.82154e-23)
(0.19052 -0.00419148 -2.11958e-22)
(0.188461 0.00176273 -1.39358e-22)
(0.186324 0.0072519 -1.54247e-22)
(0.184189 0.012215 -3.30324e-22)
(0.182124 0.0166202 5.40167e-21)
(0.180184 0.0204595 -5.41352e-21)
(0.178412 0.023744 5.30931e-21)
(0.176833 0.0264956 -4.93112e-21)
(0.175454 0.028738 4.60235e-21)
(0.174293 0.0305112 -5.48518e-21)
(0.173691 0.0321832 0)
(0.192257 -0.0523624 0)
(0.191764 -0.0549398 7.59698e-22)
(0.191434 -0.0571722 -1.00494e-20)
(0.191321 -0.059049 3.77952e-22)
(0.191417 -0.060486 1.14824e-20)
(0.191719 -0.0614019 6.53987e-22)
(0.192215 -0.0617129 6.57715e-22)
(0.192861 -0.0613531 -3.90142e-21)
(0.193622 -0.0602331 4.84769e-21)
(0.194426 -0.0582619 -1.02922e-23)
(0.195192 -0.0554239 -1.4652e-21)
(0.19583 -0.0517255 1.474e-21)
(0.196249 -0.0472123 -3.34992e-22)
(0.196364 -0.0419747 3.9763e-22)
(0.196113 -0.0361433 -3.08195e-21)
(0.19546 -0.0298804 3.07491e-21)
(0.194399 -0.0233663 -2.63106e-22)
(0.192959 -0.0167842 2.98211e-22)
(0.191194 -0.0103062 -9.7189e-22)
(0.189177 -0.0040819 1.29747e-21)
(0.186995 0.00176907 -3.13395e-23)
(0.184732 0.00715959 -2.9777e-21)
(0.18247 0.0120341 3.26133e-21)
(0.180281 0.0163649 4.27341e-22)
(0.17822 0.0201471 3.70345e-22)
(0.176331 0.0233937 -6.53385e-21)
(0.174641 0.026127 -9.25321e-23)
(0.173156 0.0283703 7.23972e-21)
(0.171896 0.0301619 0)
(0.171227 0.031897 0)
(0.190785 -0.0538863 0)
(0.190321 -0.0562344 -1.38516e-20)
(0.190058 -0.05828 3.80929e-22)
(0.190013 -0.0599745 4.79282e-22)
(0.190177 -0.0612312 2.43925e-20)
(0.190545 -0.0619688 -1.24779e-20)
(0.191102 -0.0621047 -6.87383e-22)
(0.1918 -0.0615777 0)
(0.192604 -0.0602827 4.14694e-21)
(0.193434 -0.0581547 -4.25013e-21)
(0.194209 -0.0551795 1.56016e-21)
(0.194838 -0.0513672 -3.92042e-22)
(0.195227 -0.0467686 -1.18366e-21)
(0.195294 -0.0414773 1.68098e-23)
(0.194979 -0.0356256 6.85644e-22)
(0.194246 -0.0293748 -6.94212e-22)
(0.193094 -0.0229021 2.09059e-23)
(0.191553 -0.0163858 1.04843e-21)
(0.189681 -0.00999175 2.66827e-22)
(0.187551 -0.00386261 -1.65858e-21)
(0.185252 0.00188865 3.57241e-21)
(0.182872 0.00718099 -3.38999e-21)
(0.180491 0.011964 0)
(0.178183 0.0162142 -4.46684e-22)
(0.176005 0.0199298 7.89203e-21)
(0.174002 0.0231257 -1.61962e-20)
(0.172201 0.0258254 -7.49821e-23)
(0.17061 0.0280525 -3.64227e-22)
(0.169249 0.0298448 7.49383e-21)
(0.168502 0.0316162 0)
(0.18906 -0.0553276 -1.94186e-21)
(0.188625 -0.057464 0)
(0.188426 -0.0593354 -8.90563e-22)
(0.188447 -0.0608561 1.3231e-20)
(0.188677 -0.0619377 -1.44552e-20)
(0.189109 -0.0624996 1.2983e-20)
(0.18972 -0.0624633 -1.3049e-20)
(0.190467 -0.0617629 -5.44601e-21)
(0.191305 -0.060291 1.10682e-20)
(0.192152 -0.0580039 -4.96148e-22)
(0.192928 -0.0548871 -3.9181e-21)
(0.193538 -0.0509557 1.21257e-21)
(0.193889 -0.0462655 -8.41129e-22)
(0.193902 -0.0409139 -4.69806e-22)
(0.193518 -0.0350347 5.67715e-21)
(0.192704 -0.0287885 -5.75327e-21)
(0.191463 -0.0223497 6.1481e-22)
(0.189826 -0.0158919 8.39858e-22)
(0.187852 -0.00957515 -1.3216e-21)
(0.185619 -0.0035359 4.17526e-21)
(0.183213 0.00211908 6.73194e-22)
(0.180723 0.00731444 -7.933e-21)
(0.178233 0.0120046 4.34246e-21)
(0.175814 0.0161699 9.35591e-21)
(0.173527 0.0198117 -9.22631e-21)
(0.171415 0.0229471 9.31789e-21)
(0.169507 0.0256006 -9.85826e-21)
(0.167812 0.0277966 6.09859e-22)
(0.166351 0.0295739 0)
(0.165518 0.0313577 -9.49858e-22)
(0.187052 -0.0566921 2.0196e-21)
(0.186645 -0.0586312 -1.73259e-20)
(0.18651 -0.0603375 1.65808e-20)
(0.186597 -0.06169 9.74821e-22)
(0.186891 -0.0625994 9.44774e-22)
(0.187383 -0.0629856 0)
(0.18804 -0.062778 -8.77445e-22)
(0.18883 -0.0618961 -6.76981e-21)
(0.189693 -0.0602464 1.09726e-20)
(0.19055 -0.0577965 -5.60866e-21)
(0.191317 -0.0545336 -2.46709e-22)
(0.191899 -0.0504784 1.23942e-21)
(0.192206 -0.0456921 -1.24608e-21)
(0.192159 -0.0402754 -1.27167e-23)
(0.191703 -0.0343638 1.17864e-20)
(0.190808 -0.0281172 -1.17759e-20)
(0.18948 -0.021707 -3.56032e-23)
(0.187752 -0.0153026 1.63692e-21)
(0.185684 -0.00905846 -1.62803e-21)
(0.183356 -0.00310504 -2.47153e-22)
(0.180853 0.00245664 4.6361e-21)
(0.178266 0.00755645 -1.03789e-20)
(0.175676 0.0121533 4.45228e-21)
(0.173157 0.0162311 -7.2455e-22)
(0.170769 0.0197941 0)
(0.168556 0.0228613 6.4943e-22)
(0.166547 0.0254587 6.43483e-22)
(0.164752 0.0276116 -1.04817e-20)
(0.163195 0.0293605 9.68296e-21)
(0.162272 0.0311361 9.87775e-22)
(0.184728 -0.0579837 0)
(0.18435 -0.0597357 -6.9556e-23)
(0.184279 -0.0612824 1.77654e-20)
(0.184431 -0.0624696 -1.81108e-20)
(0.184785 -0.0632073 -1.65754e-20)
(0.185332 -0.0634168 2.54383e-20)
(0.186033 -0.0630341 -6.91759e-21)
(0.186858 -0.0619639 -3.47589e-23)
(0.187737 -0.0601346 -7.80994e-22)
(0.188595 -0.0575176 0)
(0.189345 -0.0541046 -1.8224e-21)
(0.189891 -0.0499222 3.09372e-21)
(0.190147 -0.0450367 -1.26476e-21)
(0.190036 -0.0395523 1.33068e-23)
(0.189505 -0.0336059 1.9359e-20)
(0.18853 -0.0273564 -1.93709e-20)
(0.187117 -0.0209723 3.72567e-23)
(0.185304 -0.0146185 1.97783e-21)
(0.183151 -0.00844412 -4.31902e-21)
(0.180736 -0.00257391 2.33498e-21)
(0.178148 0.00289659 0)
(0.175474 0.00790211 -7.88576e-22)
(0.172797 0.0124057 -8.7306e-23)
(0.17019 0.0163945 7.21846e-21)
(0.167711 0.0198754 -1.84825e-20)
(0.165406 0.0228692 1.27542e-20)
(0.163304 0.0254029 1.27117e-20)
(0.161416 0.0275033 -1.32098e-20)
(0.159766 0.0292128 -8.08655e-23)
(0.158754 0.0309631 0)
(0.182052 -0.0592028 0)
(0.181707 -0.0607737 -1.8545e-20)
(0.1817 -0.062163 2.01876e-20)
(0.181914 -0.0631852 1.76852e-20)
(0.182328 -0.0637493 -1.9281e-20)
(0.182923 -0.0637806 -9.52312e-21)
(0.183665 -0.0632143 8.19192e-22)
(0.184517 -0.0619505 8.88251e-21)
(0.185406 -0.0599384 1.65549e-21)
(0.186256 -0.0571505 0)
(0.186979 -0.0535844 0)
(0.187482 -0.0492728 -1.06864e-21)
(0.18768 -0.0442871 1.33005e-21)
(0.187501 -0.0387349 0)
(0.186894 -0.0327537 2.84684e-20)
(0.18584 -0.0265015 -2.84716e-20)
(0.184347 -0.0201436 0)
(0.182454 -0.0138402 -2.21377e-21)
(0.180224 -0.00773487 2.68319e-21)
(0.177734 -0.00194693 0)
(0.175071 0.00343336 0)
(0.172324 0.00834534 1.73783e-21)
(0.169572 0.0127558 -6.51469e-21)
(0.166887 0.0166549 -2.2937e-22)
(0.164329 0.0200515 6.48589e-21)
(0.161943 0.0229684 1.49092e-20)
(0.159757 0.0254333 -1.55963e-20)
(0.157782 0.0274739 -1.41713e-20)
(0.156048 0.0291356 1.46834e-20)
(0.154949 0.0308472 0)
(0.178986 -0.060346 0)
(0.178677 -0.061736 0)
(0.178734 -0.0629683 0)
(0.179011 -0.0638233 -1.93838e-20)
(0.179482 -0.0642096 9.81088e-21)
(0.18012 -0.06406 1.11295e-20)
(0.180899 -0.0632984 1.14122e-21)
(0.18177 -0.061838 7.56889e-21)
(0.182661 -0.059639 -1.15514e-21)
(0.183495 -0.056677 -6.57492e-21)
(0.184184 -0.052956 -2.91705e-22)
(0.184637 -0.0485151 -4.07431e-22)
(0.184772 -0.0434305 -3.76738e-22)
(0.184521 -0.0378126 2.62944e-22)
(0.183838 -0.0317997 3.92619e-20)
(0.182706 -0.025548 -3.92558e-20)
(0.181138 -0.0192191 -1.17813e-21)
(0.179173 -0.0129683 7.93548e-22)
(0.176874 -0.00693379 -7.56216e-22)
(0.17432 -0.00122907 -4.53247e-22)
(0.171595 0.00406063 7.82024e-21)
(0.168786 0.00887898 6.14237e-22)
(0.165971 0.0131962 -8.12269e-21)
(0.163223 0.0170051 1.12181e-21)
(0.160597 0.0203164 -7.51514e-21)
(0.15814 0.0231541 -9.7869e-21)
(0.15588 0.0255466 1.78114e-20)
(0.153828 0.0275226 0)
(0.152016 0.02913 0)
(0.150834 0.030793 0)
(0.175484 -0.061403 -2.38813e-20)
(0.175217 -0.0626105 2.51914e-20)
(0.175339 -0.0636833 0)
(0.175679 -0.0643666 -1.12592e-20)
(0.176204 -0.0645696 1.27317e-20)
(0.176884 -0.0642314 9.95993e-21)
(0.177695 -0.063265 -1.26218e-20)
(0.178577 -0.0616048 0)
(0.179463 -0.0592149 -9.39048e-22)
(0.180273 -0.0560766 0)
(0.180921 -0.0522007 -8.1151e-25)
(0.181318 -0.0476326 5.83622e-24)
(0.181385 -0.042453 1.05142e-22)
(0.18106 -0.0367747 7.96154e-25)
(0.1803 -0.0307361 5.19529e-20)
(0.179094 -0.024491 -5.19718e-20)
(0.177455 -0.018197 1.44346e-22)
(0.175426 -0.012004 3.69695e-22)
(0.173069 -0.00604438 -4.66446e-23)
(0.170462 -0.000425931 -5.04212e-23)
(0.167687 0.00477117 0)
(0.164829 0.0094947 -1.09796e-21)
(0.161966 0.013718 0)
(0.159166 0.0174362 7.43928e-21)
(0.156485 0.0206616 -9.59019e-21)
(0.153969 0.0234188 -8.64518e-21)
(0.151645 0.0257369 9.60588e-21)
(0.149525 0.0276451 0)
(0.147643 0.0291938 -1.54896e-20)
(0.146384 0.030801 1.67791e-20)
(0.171499 -0.0623582 0)
(0.171279 -0.0633799 8.76514e-23)
(0.171468 -0.064288 2.70032e-20)
(0.171872 -0.0647925 -2.57174e-20)
(0.172447 -0.0648062 1.52515e-21)
(0.173169 -0.0642671 -2.8278e-21)
(0.174005 -0.063089 1.28613e-21)
(0.174893 -0.0612252 0)
(0.175767 -0.0586415 0)
(0.176546 -0.0553264 0)
(0.177145 -0.0512979 3.17175e-22)
(0.17748 -0.0466073 -1.00701e-21)
(0.177476 -0.0413396 1.33278e-21)
(0.177075 -0.0356095 -4.95697e-24)
(0.17624 -0.0295545 6.65289e-20)
(0.174963 -0.0233257 -6.72817e-20)
(0.17326 -0.0170758 2.04029e-21)
(0.171176 -0.0109488 -5.49459e-21)
(0.168772 -0.00507083 4.21178e-21)
(0.166123 0.000456011 5.43971e-22)
(0.163312 0.00555662 6.52068e-22)
(0.160419 0.0101828 0)
(0.15752 0.0143107 0)
(0.154682 0.0179373 1.33057e-21)
(0.151959 0.0210762 -2.80721e-21)
(0.149396 0.0237525 1.46146e-21)
(0.147018 0.0259951 2.19914e-20)
(0.14484 0.0278338 -2.00676e-20)
(0.142897 0.0293211 1.24649e-22)
(0.141568 0.0308679 0)
(0.166977 -0.0631882 -2.79987e-20)
(0.166806 -0.0640223 2.59786e-20)
(0.167066 -0.0647562 1.20272e-20)
(0.167536 -0.065072 -1.39659e-20)
(0.168162 -0.0648887 -1.39771e-20)
(0.168923 -0.0641345 1.42961e-20)
(0.169778 -0.0627414 1.06017e-20)
(0.170667 -0.0606696 -9.51656e-21)
(0.171521 -0.0578907 4.45767e-21)
(0.172262 -0.0544006 -3.96546e-21)
(0.172806 -0.0502245 2.47856e-21)
(0.173074 -0.0454196 -1.5837e-21)
(0.172996 -0.0400743 -5.53944e-22)
(0.172518 -0.0343046 -1.38364e-23)
(0.171611 -0.0282466 8.36509e-20)
(0.170267 -0.0220473 -8.36777e-20)
(0.168509 -0.0158542 1.05518e-22)
(0.166379 -0.00980466 2.42779e-21)
(0.163938 -0.00401825 2.81431e-21)
(0.161262 0.00140901 -4.91326e-21)
(0.158428 0.00640708 5.19364e-21)
(0.155515 0.0109316 -4.9993e-21)
(0.152595 0.0149614 1.42769e-20)
(0.149732 0.018495 -1.24154e-20)
(0.146981 0.0215467 -1.12893e-20)
(0.144382 0.0241418 1.1021e-20)
(0.141962 0.0263086 1.24787e-20)
(0.139735 0.0280773 -1.36306e-20)
(0.13774 0.0295018 -2.30861e-20)
(0.136347 0.0309856 2.19051e-20)
(0.161851 -0.0638639 -1.91987e-21)
(0.161735 -0.0645057 -2.99716e-20)
(0.162072 -0.065053 3.29987e-20)
(0.162608 -0.0651698 0)
(0.163286 -0.0647769 -1.79779e-21)
(0.164084 -0.0637978 0)
(0.164953 -0.0621854 -1.55138e-21)
(0.165837 -0.059903 9.98143e-21)
(0.166666 -0.0569298 -1.06804e-20)
(0.167361 -0.0532695 4.6899e-22)
(0.167844 -0.0489545 -6.82223e-22)
(0.168041 -0.0440473 -2.03364e-22)
(0.167886 -0.0386393 -3.9366e-23)
(0.167333 -0.0328467 1.43615e-23)
(0.166356 -0.0268032 1.03046e-19)
(0.164953 -0.0206512 -1.0306e-19)
(0.163147 -0.0145317 -1.09524e-22)
(0.160982 -0.00857486 -2.71989e-22)
(0.158519 -0.00289324 6.99962e-22)
(0.155829 0.0024235 0)
(0.152987 0.00731047 8.43963e-22)
(0.150069 0.011727 1.31358e-20)
(0.147143 0.0156545 -1.35417e-20)
(0.144271 0.0190926 -1.87751e-21)
(0.141504 0.0220559 0)
(0.138882 0.0245694 -1.87512e-21)
(0.136431 0.0266607 0)
(0.134166 0.0283594 -2.53735e-20)
(0.132127 0.0297211 2.64592e-20)
(0.130677 0.031141 -1.54989e-21)
(0.156047 -0.0643465 -3.08308e-20)
(0.155995 -0.0647855 3.23534e-20)
(0.156412 -0.0651324 1.18121e-22)
(0.157015 -0.0650411 1.73172e-20)
(0.157749 -0.0644218 -2.84907e-20)
(0.158579 -0.0632128 1.67774e-20)
(0.15946 -0.0613773 1.59695e-21)
(0.160333 -0.0588841 5.35978e-23)
(0.161128 -0.0557206 0)
(0.161772 -0.0518989 -4.84329e-22)
(0.162189 -0.0474581 -1.5147e-21)
(0.16231 -0.0424654 2.45417e-21)
(0.162078 -0.0370146 2.05704e-23)
(0.16145 -0.0312211 3.26441e-22)
(0.160408 -0.0252151 1.24731e-19)
(0.158953 -0.019133 -1.26021e-19)
(0.15711 -0.0131086 1.07445e-21)
(0.154924 -0.00726414 3.44955e-22)
(0.152452 -0.00170452 -7.16859e-21)
(0.149765 0.00348728 6.37077e-21)
(0.146932 0.00825159 -8.71557e-22)
(0.144025 0.0125514 0)
(0.14111 0.0163703 -1.89999e-21)
(0.138244 0.019709 1.93264e-21)
(0.135476 0.0225819 -1.42316e-20)
(0.132845 0.0250131 3.40952e-20)
(0.130374 0.0270291 -1.37016e-20)
(0.12808 0.0286587 1.88391e-22)
(0.126006 0.0299582 -2.79131e-20)
(0.124507 0.0313144 2.98257e-20)
(0.149472 -0.0645811 0)
(0.149495 -0.064804 0)
(0.149998 -0.0649379 -1.93055e-20)
(0.150675 -0.0646241 1.5673e-20)
(0.151463 -0.0637671 0)
(0.152324 -0.0623241 -1.87296e-21)
(0.153211 -0.0602635 -1.7885e-21)
(0.154067 -0.0575625 -1.51126e-21)
(0.154823 -0.0542173 0)
(0.155408 -0.050248 0)
(0.155753 -0.0457002 -3.61774e-22)
(0.155796 -0.0406452 5.57393e-22)
(0.155485 -0.035178 -4.95722e-22)
(0.154786 -0.0294119 3.06906e-23)
(0.153685 -0.0234724 1.5007e-19)
(0.152187 -0.017489 -1.50149e-19)
(0.15032 -0.0115868 -1.45921e-22)
(0.148127 -0.00587967 2.4799e-21)
(0.145664 -0.000463981 -3.19909e-21)
(0.142996 0.00458423 0)
(0.140191 0.00921067 0)
(0.137315 0.013382 0)
(0.134428 0.0170837 0)
(0.131585 0.0203171 -2.38639e-21)
(0.128832 0.0230961 -2.18056e-21)
(0.126206 0.0254436 0)
(0.123729 0.0273842 -2.00587e-20)
(0.121417 0.0289456 1.53341e-20)
(0.119317 0.0301842 0)
(0.117775 0.0314777 0)
(0.142017 -0.0644941 -2.43011e-21)
(0.142128 -0.0644864 0)
(0.142724 -0.0643951 0)
(0.143481 -0.0638408 0)
(0.144324 -0.0627404 0)
(0.145212 -0.0610605 0)
(0.146101 -0.0587769 1.82662e-21)
(0.146932 -0.0558763 8.38461e-22)
(0.14764 -0.0523639 -4.84453e-21)
(0.148161 -0.0482678 1.88476e-21)
(0.148429 -0.0436393 6.24897e-21)
(0.148391 -0.038553 -2.75303e-21)
(0.148003 -0.0331036 7.59963e-22)
(0.147237 -0.0274013 -3.50221e-22)
(0.146084 -0.0215652 1.7816e-19)
(0.144555 -0.0157166 -1.78209e-19)
(0.142678 -0.00997094 -3.11331e-21)
(0.140495 -0.00443232 -6.11217e-22)
(0.138061 0.000811671 1.18734e-20)
(0.135434 0.00569245 -1.60123e-20)
(0.132677 0.0101613 4.96736e-22)
(0.129852 0.0141884 9.39992e-21)
(0.127014 0.017761 1.31846e-21)
(0.124213 0.0208806 2.43724e-21)
(0.121493 0.0235604 0)
(0.118888 0.0258213 0)
(0.116418 0.0276858 0)
(0.114101 0.0291798 0)
(0.111984 0.030359 0)
(0.110406 0.0315914 -2.28048e-21)
(0.133548 -0.0639854 5.09292e-21)
(0.133763 -0.0637331 -2.03524e-20)
(0.134463 -0.0633986 2.11597e-20)
(0.135302 -0.0625929 0)
(0.136197 -0.0612458 -1.80862e-20)
(0.137109 -0.0593303 2.08853e-20)
(0.137992 -0.0568318 -1.58055e-20)
(0.138791 -0.0537471 1.34021e-20)
(0.139444 -0.0500906 0)
(0.139892 -0.0458978 3.15199e-21)
(0.140079 -0.0412251 -1.93616e-21)
(0.139958 -0.0361487 -2.54996e-21)
(0.139493 -0.0307619 3.10777e-22)
(0.138666 -0.0251699 -6.5852e-22)
(0.137474 -0.019484 2.10198e-19)
(0.135928 -0.0138156 -2.08097e-19)
(0.134059 -0.0082694 -1.42191e-21)
(0.131907 -0.00293871 -3.67716e-21)
(0.129523 0.00209846 1.33764e-20)
(0.126961 0.00678135 1.07115e-21)
(0.124278 0.0110669 -1.11789e-20)
(0.121528 0.0149289 -1.43342e-21)
(0.118763 0.0183562 -2.5737e-20)
(0.116028 0.0213501 2.08559e-20)
(0.113361 0.0239224 -2.01187e-20)
(0.110796 0.0260918 2.24858e-20)
(0.10835 0.027878 0)
(0.106041 0.0293047 -2.17222e-20)
(0.103918 0.0304258 2.1031e-20)
(0.102312 0.0315985 4.89151e-21)
(0.123897 -0.0629131 1.68775e-20)
(0.124232 -0.0624016 -2.19498e-20)
(0.125045 -0.061808 -1.88411e-20)
(0.125967 -0.0607473 2.25075e-20)
(0.126913 -0.0591545 2.20392e-20)
(0.127841 -0.0570118 -4.24401e-20)
(0.12871 -0.0543159 2.82204e-20)
(0.129465 -0.0510736 -7.1605e-21)
(0.130053 -0.0473083 0)
(0.13042 -0.043062 -3.79915e-21)
(0.13052 -0.038395 3.49159e-21)
(0.130316 -0.0333838 -7.63426e-23)
(0.12978 -0.0281181 3.40273e-22)
(0.128901 -0.0226964 -7.35874e-22)
(0.127681 -0.0172204 2.4464e-19)
(0.126137 -0.0117899 -2.43448e-19)
(0.124299 -0.0064974 -2.80845e-21)
(0.122203 -0.00142452 1.9831e-21)
(0.119897 0.00336106 -6.50309e-22)
(0.117429 0.00780688 -1.4037e-20)
(0.114849 0.0118758 1.26445e-20)
(0.112204 0.0155449 3.05511e-21)
(0.10954 0.0188046 1.4286e-20)
(0.106897 0.0216556 -3.51129e-20)
(0.104309 0.024108 4.45442e-20)
(0.101806 0.0261777 -2.17139e-20)
(0.0994048 0.027881 -2.51788e-20)
(0.0971217 0.0292387 2.4373e-20)
(0.095007 0.0303022 2.24271e-20)
(0.0933817 0.0314157 -2.83716e-20)
(0.112846 -0.0610706 2.72743e-20)
(0.11332 -0.0602849 3.23279e-21)
(0.114248 -0.059429 -4.23586e-21)
(0.11525 -0.0581149 -2.42833e-20)
(0.116238 -0.056287 -2.64986e-21)
(0.117173 -0.0539385 3.76112e-21)
(0.118013 -0.0510774 7.36527e-23)
(0.118712 -0.0477207 0)
(0.119222 -0.0438998 0)
(0.119501 -0.0396623 -3.8706e-21)
(0.11951 -0.0350702 4.32393e-21)
(0.119223 -0.0301985 7.68865e-23)
(0.118622 -0.0251314 0)
(0.117704 -0.0199582 -3.69044e-22)
(0.116477 -0.0147691 2.8327e-19)
(0.114958 -0.00965045 -2.81928e-19)
(0.113178 -0.00468127 -1.1921e-21)
(0.111171 6.97733e-05 0)
(0.108977 0.00454605 6.54942e-22)
(0.106638 0.00870375 -1.11831e-20)
(0.104197 0.0125117 1.08451e-20)
(0.101693 0.0159507 -1.61101e-21)
(0.099166 0.0190118 0)
(0.0966487 0.0216954 1.91618e-22)
(0.0941718 0.024009 5.25797e-21)
(0.0917601 0.0259653 -3.35304e-21)
(0.0894293 0.0275769 2.80632e-20)
(0.087195 0.0288608 -2.3971e-23)
(0.0851075 0.0298649 2.41691e-21)
(0.083476 0.0309178 -2.27349e-20)
(0.100103 -0.0581413 -2.65662e-20)
(0.100726 -0.0570844 2.27775e-20)
(0.101765 -0.0559709 0)
(0.102836 -0.0544194 -2.23007e-20)
(0.103851 -0.0523856 2.63132e-20)
(0.104772 -0.0498743 -1.13659e-20)
(0.105565 -0.0469046 1.80303e-20)
(0.106191 -0.0435028 -8.00562e-21)
(0.10661 -0.039707 0)
(0.106791 -0.0355682 0)
(0.106707 -0.0311484 1.15444e-21)
(0.106342 -0.0265183 -1.03549e-21)
(0.105688 -0.0217538 0)
(0.104751 -0.016933 -9.53514e-23)
(0.103541 -0.0121319 3.25144e-19)
(0.10208 -0.00742187 -3.25184e-19)
(0.100395 -0.00286666 2.72786e-22)
(0.0985169 0.00147892 0)
(0.0964788 0.00557001 5.66094e-21)
(0.0943149 0.00937186 -5.47894e-21)
(0.092059 0.0128595 0)
(0.0897432 0.0160168 0)
(0.0873977 0.018836 1.78367e-20)
(0.0850503 0.021316 -3.31509e-20)
(0.0827259 0.0234619 1.36064e-20)
(0.0804452 0.0252824 -2.95808e-20)
(0.0782212 0.0267859 3.26955e-20)
(0.0760684 0.0279854 0)
(0.0740363 0.0289239 -3.1567e-20)
(0.0724188 0.02991 2.50332e-20)
(0.0852533 -0.0536251 -2.71474e-20)
(0.0860224 -0.0523213 2.63972e-20)
(0.0871517 -0.0509798 -2.73458e-20)
(0.0882641 -0.0492374 9.5677e-22)
(0.089276 -0.0470623 1.38043e-21)
(0.0901545 -0.0444702 3.6765e-20)
(0.0908732 -0.0414897 -1.10361e-20)
(0.0914027 -0.0381549 -1.04886e-21)
(0.0917157 -0.0345083 5.88418e-21)
(0.0917911 -0.0306018 -9.9151e-21)
(0.0916157 -0.0264943 3.96451e-21)
(0.0911842 -0.022249 -2.0377e-22)
(0.0904997 -0.0179309 9.55469e-22)
(0.0895725 -0.0136034 -1.34232e-21)
(0.0884193 -0.00932651 3.72453e-19)
(0.0870611 -0.00515434 -3.70654e-19)
(0.0855221 -0.00113427 -3.98492e-21)
(0.0838275 0.00269377 9.26373e-21)
(0.0820032 0.00629726 -5.58176e-21)
(0.0800742 0.00965077 -1.53966e-20)
(0.0780649 0.0127355 3.15949e-20)
(0.0759982 0.0155385 -1.60129e-20)
(0.0738958 0.0180525 -2.01633e-21)