/*--------------------------------*- C++ -*----------------------------------*\
  =========                 |
  \\      /  F ield         | OpenFOAM: The Open Source CFD Toolbox
   \\    /   O peration     | Website:  https://openfoam.org
    \\  /    A nd           | Version:  12
     \\/     M anipulation  |
\*---------------------------------------------------------------------------*/
FoamFile
{
    format      ascii;
    class       volSymmTensorField;
    location    "200";
    object      UPrime2Mean;
}
// * * * * * * * * * * * * * * * * * * * * * * * * * * * * * * * * * * * * * //

dimensions      [0 2 -2 0 0 0 0];

internalField   nonuniform List<symmTensor> 
6750
(
(3.14408e-10 4.71882e-09 0 1.34417e-07 0 0)
(7.39561e-09 8.99459e-08 0 1.86834e-06 0 0)
(2.39908e-08 3.0163e-07 0 5.94141e-06 0 0)
(4.45268e-08 6.1051e-07 0 1.23668e-05 0 0)
(1.06383e-07 1.30938e-06 0 2.09106e-05 0 0)
(3.12828e-11 5.08256e-10 0 1.024e-07 0 0)
(1.33334e-09 3.71731e-08 0 1.57468e-06 0 0)
(9.24402e-09 1.83524e-07 0 5.10805e-06 0 0)
(3.20154e-08 5.1108e-07 0 1.06089e-05 0 0)
(8.56662e-08 1.1119e-06 0 1.7706e-05 0 0)
(2.57894e-11 5.54684e-10 0 9.3185e-08 0 0)
(1.09691e-09 3.70984e-08 0 1.43778e-06 0 0)
(9.71874e-09 1.98792e-07 0 4.60535e-06 0 0)
(3.78483e-08 5.62453e-07 0 9.3598e-06 0 0)
(9.83551e-08 1.15843e-06 0 1.51765e-05 0 0)
(2.18954e-11 5.08626e-10 0 8.15409e-08 0 0)
(1.61559e-09 4.41188e-08 0 1.27148e-06 0 0)
(1.35443e-08 2.28261e-07 0 4.03265e-06 0 0)
(4.93169e-08 6.16351e-07 0 8.08389e-06 0 0)
(1.18369e-07 1.20591e-06 0 1.29279e-05 0 0)
(1.65332e-11 3.91811e-10 0 6.85024e-08 0 0)
(2.18817e-09 4.81985e-08 0 1.0891e-06 0 0)
(1.78279e-08 2.4541e-07 0 3.44454e-06 0 0)
(6.18531e-08 6.44875e-07 0 6.86032e-06 0 0)
(1.4148e-07 1.22845e-06 0 1.09047e-05 0 0)
(1.09083e-11 2.20578e-10 0 5.56886e-08 0 0)
(2.63369e-09 4.85634e-08 0 9.05913e-07 0 0)
(2.17802e-08 2.49117e-07 0 2.86982e-06 0 0)
(7.4445e-08 6.49243e-07 0 5.70261e-06 0 0)
(1.67347e-07 1.2253e-06 0 9.0415e-06 0 0)
(8.0409e-12 4.80172e-11 0 4.39363e-08 0 0)
(2.97029e-09 4.6473e-08 0 7.30939e-07 0 0)
(2.5491e-08 2.43166e-07 0 2.32406e-06 0 0)
(8.74787e-08 6.35014e-07 0 4.61728e-06 0 0)
(1.96519e-07 1.19788e-06 0 7.31424e-06 0 0)
(9.59386e-12 -8.91e-11 0 3.35643e-08 0 0)
(3.25723e-09 4.29619e-08 0 5.69505e-07 0 0)
(2.91593e-08 2.30172e-07 0 1.81847e-06 0 0)
(1.0121e-07 6.04761e-07 0 3.61541e-06 0 0)
(2.28823e-07 1.14449e-06 0 5.72629e-06 0 0)
(1.56478e-11 -1.78428e-10 0 2.46507e-08 0 0)
(3.53031e-09 3.85566e-08 0 4.25136e-07 0 0)
(3.28283e-08 2.1128e-07 0 1.36301e-06 0 0)
(1.15371e-07 5.58965e-07 0 2.71269e-06 0 0)
(2.63006e-07 1.06233e-06 0 4.29711e-06 0 0)
(2.51457e-11 -2.21555e-10 0 1.7189e-08 0 0)
(3.79729e-09 3.3488e-08 0 3.00374e-07 0 0)
(3.63924e-08 1.87063e-07 0 9.66497e-07 0 0)
(1.29283e-07 4.97958e-07 0 1.92554e-06 0 0)
(2.97048e-07 9.5026e-07 0 3.05089e-06 0 0)
(3.63708e-11 -2.26033e-10 0 1.1151e-08 0 0)
(4.04811e-09 2.78833e-08 0 1.9698e-07 0 0)
(3.96685e-08 1.58163e-07 0 6.35845e-07 0 0)
(1.42082e-07 4.23085e-07 0 1.268e-06 0 0)
(3.28592e-07 8.10151e-07 0 2.00956e-06 0 0)
(4.7454e-11 -2.0095e-10 0 6.49635e-09 0 0)
(4.26312e-09 2.18607e-08 0 1.15868e-07 0 0)
(4.24521e-08 1.25506e-07 0 3.75189e-07 0 0)
(1.52941e-07 3.36953e-07 0 7.48879e-07 0 0)
(3.55472e-07 6.46931e-07 0 1.1871e-06 0 0)
(5.64704e-11 -1.53787e-10 0 3.16531e-09 0 0)
(4.41706e-09 1.5565e-08 0 5.70516e-08 0 0)
(4.45648e-08 9.0304e-08 0 1.85436e-07 0 0)
(1.61215e-07 2.43106e-07 0 3.70455e-07 0 0)
(3.76082e-07 4.67665e-07 0 5.87343e-07 0 0)
(6.02204e-11 -8.85866e-11 0 1.07162e-09 0 0)
(4.47333e-09 9.17448e-09 0 1.96656e-08 0 0)
(4.58825e-08 5.39249e-08 0 6.43096e-08 0 0)
(1.6654e-07 1.45499e-07 0 1.28582e-07 0 0)
(3.89557e-07 2.80309e-07 0 2.03898e-07 0 0)
(5.2566e-11 -2.19813e-11 0 1.15762e-10 0 0)
(4.34915e-09 2.90973e-09 0 2.04498e-09 0 0)
(4.63709e-08 1.76993e-08 0 6.85509e-09 0 0)
(1.68917e-07 4.79587e-08 0 1.3767e-08 0 0)
(3.95874e-07 9.257e-08 0 2.18706e-08 0 0)
(5.26497e-11 1.73328e-11 0 1.44492e-10 0 0)
(4.34992e-09 -3.00094e-09 0 2.18412e-09 0 0)
(4.63694e-08 -1.80228e-08 0 7.13945e-09 0 0)
(1.68912e-07 -4.8556e-08 0 1.4172e-08 0 0)
(3.95858e-07 -9.34405e-08 0 2.23737e-08 0 0)
(6.01098e-11 8.55459e-11 0 1.15811e-09 0 0)
(4.47139e-09 -9.26626e-09 0 2.00957e-08 0 0)
(4.58756e-08 -5.4245e-08 0 6.51758e-08 0 0)
(1.66521e-07 -1.46086e-07 0 1.29812e-07 0 0)
(3.89508e-07 -2.81159e-07 0 2.05424e-07 0 0)
(5.6231e-11 1.52124e-10 0 3.31043e-09 0 0)
(4.4132e-09 -1.56518e-08 0 5.77812e-08 0 0)
(4.45523e-08 -9.0612e-08 0 1.86901e-07 0 0)
(1.61182e-07 -2.43669e-07 0 3.7253e-07 0 0)
(3.75999e-07 -4.68469e-07 0 5.89913e-07 0 0)
(4.71654e-11 2.01056e-10 0 6.69701e-09 0 0)
(4.25786e-09 -2.19387e-08 0 1.169e-07 0 0)
(4.24353e-08 -1.25795e-07 0 3.77259e-07 0 0)
(1.52896e-07 -3.37479e-07 0 7.51803e-07 0 0)
(3.55361e-07 -6.47665e-07 0 1.19072e-06 0 0)
(3.61067e-11 2.28299e-10 0 1.14016e-08 0 0)
(4.04225e-09 -2.795e-08 0 1.98313e-07 0 0)
(3.96498e-08 -1.58428e-07 0 6.38517e-07 0 0)
(1.42032e-07 -4.23564e-07 0 1.27176e-06 0 0)
(3.28457e-07 -8.10793e-07 0 2.01418e-06 0 0)
(2.49861e-11 2.26074e-10 0 1.74818e-08 0 0)
(3.79153e-09 -3.3542e-08 0 3.02002e-07 0 0)
(3.63739e-08 -1.87301e-07 0 9.69765e-07 0 0)
(1.29231e-07 -4.98385e-07 0 1.93011e-06 0 0)
(2.9689e-07 -9.50785e-07 0 3.05649e-06 0 0)
(1.56696e-11 1.85116e-10 0 2.49761e-08 0 0)
(3.52459e-09 -3.85934e-08 0 4.27048e-07 0 0)
(3.28076e-08 -2.11479e-07 0 1.36686e-06 0 0)
(1.15315e-07 -5.59322e-07 0 2.71801e-06 0 0)
(2.62836e-07 -1.06272e-06 0 4.30349e-06 0 0)
(9.8431e-12 9.78558e-11 0 3.39105e-08 0 0)
(3.25043e-09 -4.29693e-08 0 5.7167e-07 0 0)
(2.91293e-08 -2.30293e-07 0 1.82286e-06 0 0)
(1.01136e-07 -6.04993e-07 0 3.62142e-06 0 0)
(2.28645e-07 -1.14474e-06 0 5.73336e-06 0 0)
(8.50178e-12 -3.78635e-11 0 4.42898e-08 0 0)
(2.963e-09 -4.64495e-08 0 7.33307e-07 0 0)
(2.54556e-08 -2.43207e-07 0 2.32895e-06 0 0)
(8.74032e-08 -6.35169e-07 0 4.62416e-06 0 0)
(1.96345e-07 -1.19809e-06 0 7.32278e-06 0 0)
(1.15319e-11 -2.10465e-10 0 5.60386e-08 0 0)
(2.62771e-09 -4.85231e-08 0 9.08441e-07 0 0)
(2.17513e-08 -2.49132e-07 0 2.87519e-06 0 0)
(7.43941e-08 -6.49434e-07 0 5.71039e-06 0 0)
(1.67207e-07 -1.22555e-06 0 9.05149e-06 0 0)
(1.72341e-11 -3.82455e-10 0 6.88424e-08 0 0)
(2.18337e-09 -4.81438e-08 0 1.09177e-06 0 0)
(1.78038e-08 -2.45401e-07 0 3.45045e-06 0 0)
(6.18118e-08 -6.45069e-07 0 6.86926e-06 0 0)
(1.4135e-07 -1.2287e-06 0 1.09166e-05 0 0)
(2.2554e-11 -5.00885e-10 0 8.18668e-08 0 0)
(1.61184e-09 -4.40565e-08 0 1.27424e-06 0 0)
(1.35248e-08 -2.2824e-07 0 4.03907e-06 0 0)
(4.9285e-08 -6.16582e-07 0 8.09419e-06 0 0)
(1.18245e-07 -1.20612e-06 0 1.29421e-05 0 0)
(2.62486e-11 -5.48696e-10 0 9.34949e-08 0 0)
(1.09311e-09 -3.70301e-08 0 1.4406e-06 0 0)
(9.70062e-09 -1.98755e-07 0 4.61224e-06 0 0)
(3.78106e-08 -5.62622e-07 0 9.37147e-06 0 0)
(9.82237e-08 -1.15839e-06 0 1.51933e-05 0 0)
(3.14548e-11 -5.04941e-10 0 1.02691e-07 0 0)
(1.32778e-09 -3.71129e-08 0 1.57749e-06 0 0)
(9.22275e-09 -1.83477e-07 0 5.11528e-06 0 0)
(3.19682e-08 -5.11156e-07 0 1.06218e-05 0 0)
(8.55346e-08 -1.11144e-06 0 1.77257e-05 0 0)
(3.13664e-10 -4.71576e-09 0 1.34687e-07 0 0)
(7.38161e-09 -8.98741e-08 0 1.87103e-06 0 0)
(2.39538e-08 -3.01482e-07 0 5.94864e-06 0 0)
(4.44612e-08 -6.10142e-07 0 1.23804e-05 0 0)
(1.06233e-07 -1.30808e-06 0 2.09321e-05 0 0)
(1.15164e-06 7.28684e-06 0 5.0321e-05 0 0)
(2.68568e-06 1.33534e-05 0 7.07095e-05 0 0)
(4.71314e-06 2.03959e-05 0 9.29287e-05 0 0)
(6.88827e-06 2.76103e-05 -5.58543e-25 0.000115895 -1.36449e-24 1.37327e-42)
(9.14548e-06 3.48081e-05 0 0.000138268 0 0)
(1.14235e-05 4.17597e-05 0 0.000158932 0 0)
(1.36417e-05 4.81862e-05 5.76307e-23 0.000176877 1.46461e-22 5.2888e-39)
(1.5742e-05 5.38395e-05 -6.36577e-23 0.000191111 -1.60755e-22 5.38214e-39)
(1.76497e-05 5.84591e-05 -5.41185e-25 0.000200676 -1.36475e-24 3.01946e-43)
(1.9461e-05 6.21644e-05 -3.77227e-23 0.000205479 -9.47178e-23 1.13764e-39)
(2.10778e-05 6.46436e-05 5.32526e-26 0.000204631 -2.05316e-25 2.36447e-42)
(2.25457e-05 6.5762e-05 1.88312e-25 0.000197313 2.04824e-25 2.78867e-42)
(2.3887e-05 6.5636e-05 2.24174e-23 0.000184595 5.30671e-23 2.70251e-40)
(2.51371e-05 6.43236e-05 2.299e-23 0.00016737 5.29738e-23 2.1981e-40)
(2.63344e-05 6.19022e-05 5.52854e-23 0.000146917 1.23176e-22 9.79955e-40)
(2.75157e-05 5.84479e-05 -5.68973e-23 0.000124757 -1.21931e-22 9.80113e-40)
(2.8724e-05 5.40343e-05 2.34453e-23 0.00010247 4.79312e-23 1.30119e-40)
(3.00033e-05 4.87208e-05 2.23684e-23 8.14951e-05 4.3243e-23 9.26368e-41)
(3.14009e-05 4.25768e-05 -1.26353e-24 6.30332e-05 -2.34463e-24 2.95792e-42)
(3.29777e-05 3.56983e-05 -1.36385e-24 4.79358e-05 -2.27234e-24 2.56105e-42)
(3.48467e-05 2.82329e-05 -4.58105e-23 3.66395e-05 -6.95586e-23 3.24347e-40)
(3.70137e-05 2.01726e-05 7.04594e-25 2.89378e-05 9.35198e-25 6.47332e-44)
(3.9409e-05 1.16954e-05 -8.58805e-23 2.48001e-05 -9.90346e-23 8.33901e-40)
(4.20298e-05 3.01271e-06 8.73518e-23 2.37929e-05 8.30642e-23 8.19204e-40)
(4.48417e-05 -5.67162e-06 0 2.53034e-05 0 0)
(4.77745e-05 -1.41634e-05 0 2.86511e-05 0 0)
(5.0742e-05 -2.22825e-05 1.3448e-24 3.31697e-05 4.58572e-25 1.32121e-43)
(5.36908e-05 -2.9852e-05 0 3.82586e-05 0 0)
(5.66789e-05 -3.66649e-05 0 4.33681e-05 0 0)
(5.93657e-05 -4.2503e-05 0 4.79203e-05 0 0)
(1.80174e-06 1.00336e-05 0 6.02751e-05 0 0)
(3.53107e-06 1.65346e-05 0 8.20943e-05 0 0)
(5.5257e-06 2.33592e-05 0 0.000103843 0 0)
(7.64128e-06 3.0238e-05 5.57259e-25 0.000125283 1.35485e-24 1.22142e-42)
(9.85527e-06 3.70771e-05 0 0.00014561 0 0)
(1.20982e-05 4.36425e-05 0 0.000163987 0 0)
(1.43009e-05 4.9688e-05 -5.52007e-23 0.000179555 -1.36991e-22 4.56944e-39)
(1.64185e-05 5.50043e-05 6.17524e-23 0.000191475 1.51351e-22 4.78551e-39)
(1.83963e-05 5.93899e-05 5.20651e-25 0.000198999 1.26996e-24 2.66125e-43)
(2.0325e-05 6.29792e-05 0 0.000202265 0 0)
(2.20998e-05 6.53934e-05 0 0.000200087 0 0)
(2.37949e-05 6.66282e-05 4.02782e-23 0.000192283 9.30623e-23 8.3224e-40)
(2.53876e-05 6.67118e-05 -4.2404e-23 0.00017977 -9.51865e-23 8.37483e-40)
(2.6902e-05 6.56796e-05 0 0.000163359 0 0)
(2.83538e-05 6.35724e-05 1.55169e-22 0.000144166 3.27848e-22 7.23462e-39)
(2.97563e-05 6.04336e-05 -1.60035e-22 0.000123488 -3.25826e-22 7.22984e-39)
(3.11314e-05 5.63134e-05 0 0.000102659 0 0)
(3.25117e-05 5.12709e-05 -4.55878e-23 8.29191e-05 -8.44404e-23 3.95875e-40)
(3.39406e-05 4.53777e-05 4.66294e-23 6.52974e-05 8.14668e-23 3.99789e-40)
(3.54795e-05 3.87368e-05 0 5.05594e-05 0 0)
(3.71757e-05 3.14477e-05 0 3.91268e-05 0 0)
(3.90952e-05 2.35905e-05 -6.8559e-25 3.09728e-05 -9.14475e-25 5.69649e-44)
(4.12482e-05 1.53376e-05 8.53932e-23 2.60761e-05 9.81499e-23 7.55404e-40)
(4.35907e-05 6.84802e-06 -8.79224e-23 2.41292e-05 -8.51238e-23 7.68076e-40)
(4.61064e-05 -1.68572e-06 0 2.46598e-05 0 0)
(4.8749e-05 -1.00817e-05 0 2.71036e-05 0 0)
(5.14445e-05 -1.81774e-05 -1.28021e-24 3.08768e-05 -5.58912e-25 1.17218e-43)
(5.41184e-05 -2.58294e-05 0 3.54325e-05 0 0)
(5.68143e-05 -3.29084e-05 0 4.0294e-05 0 0)
(5.94343e-05 -3.94796e-05 0 4.51739e-05 0 0)
(2.50608e-06 1.26286e-05 0 6.80673e-05 0 0)
(4.20192e-06 1.88028e-05 0 8.89475e-05 0 0)
(6.17308e-06 2.53575e-05 0 0.000109406 0 0)
(8.31559e-06 3.20739e-05 -3.77799e-23 0.000129446 -9.09852e-23 4.954e-39)
(1.05738e-05 3.87627e-05 4.3983e-23 0.000148309 1.05169e-22 5.07103e-39)
(1.28808e-05 4.5186e-05 -5.2283e-23 0.000165168 -1.25398e-22 5.07686e-39)
(1.51911e-05 5.11364e-05 5.85958e-23 0.000179208 1.38385e-22 5.1728e-39)
(1.74707e-05 5.64265e-05 -1.02846e-24 0.000189675 -2.40919e-24 1.19936e-42)
(1.9694e-05 6.09134e-05 0 0.000195994 0 0)
(2.193e-05 6.46884e-05 0 0.000198329 0 0)
(2.4087e-05 6.73523e-05 1.28789e-24 0.000195398 2.80906e-24 9.88244e-43)
(2.6233e-05 6.89478e-05 0 0.000187458 0 0)
(2.83128e-05 6.94283e-05 0 0.000175259 0 0)
(3.03285e-05 6.87939e-05 3.79474e-25 0.000159561 7.54507e-25 4.74988e-44)
(3.22627e-05 6.70423e-05 2.80787e-22 0.000141375 5.40371e-22 2.05925e-38)
(3.40965e-05 6.41829e-05 -2.9075e-22 0.000121855 -5.38551e-22 2.05922e-38)
(3.58215e-05 6.02438e-05 -4.09683e-25 0.000102174 -7.28667e-25 3.36671e-44)
(3.74479e-05 5.5277e-05 0 8.34227e-05 0 0)
(3.90088e-05 4.93627e-05 0 6.65169e-05 0 0)
(4.05621e-05 4.26133e-05 -1.63987e-24 5.21395e-05 -2.45661e-24 3.60709e-43)
(4.21751e-05 3.51612e-05 0 4.0701e-05 0 0)
(4.39089e-05 2.71603e-05 0 3.2368e-05 0 0)
(4.5793e-05 1.87473e-05 1.55666e-24 2.70316e-05 1.71722e-24 2.28109e-43)
(4.78296e-05 1.01046e-05 9.77914e-23 2.44747e-05 9.1778e-23 7.88227e-40)
(5.0013e-05 1.42241e-06 -9.85702e-23 2.43204e-05 -7.63948e-23 7.73609e-40)
(5.23178e-05 -7.11939e-06 9.79308e-23 2.6092e-05 5.96398e-23 6.55973e-40)
(5.46979e-05 -1.53593e-05 -9.89825e-23 2.92734e-05 -4.38967e-23 6.39554e-40)
(5.70902e-05 -2.31542e-05 0 3.33554e-05 0 0)
(5.9454e-05 -3.03763e-05 0 3.78777e-05 0 0)
(6.13852e-05 -3.71911e-05 0 4.27117e-05 0 0)
(3.20372e-06 1.50862e-05 0 7.53874e-05 0 0)
(4.87631e-06 2.1023e-05 5.58964e-23 9.53723e-05 1.33424e-22 2.30146e-38)
(6.89943e-06 2.74916e-05 -3.42893e-23 0.000114709 -8.03406e-23 6.0776e-39)
(9.12997e-06 3.4155e-05 -8.44189e-23 0.000133426 -1.98693e-22 2.3916e-38)
(1.14991e-05 4.07831e-05 9.88077e-23 0.000150801 2.30243e-22 2.36063e-38)
(1.39632e-05 4.71766e-05 -5.56965e-23 0.000166072 -1.27497e-22 5.73081e-39)
(1.64993e-05 5.3164e-05 0 0.000178512 0 0)
(1.9075e-05 5.85613e-05 -2.17272e-24 0.000187469 -4.74183e-24 5.07856e-42)
(2.17288e-05 6.33355e-05 0 0.000192615 0 0)
(2.44387e-05 6.73987e-05 0 0.000193911 0 0)
(2.71896e-05 7.04554e-05 -4.89672e-23 0.000190274 -9.78597e-23 1.19868e-39)
(2.9996e-05 7.25106e-05 4.96923e-23 0.000182222 9.51293e-23 1.0689e-39)
(3.27859e-05 7.34707e-05 0 0.000170359 0 0)
(3.55278e-05 7.32954e-05 -4.3716e-25 0.000155399 -7.80097e-25 5.23544e-44)
(3.81621e-05 7.19401e-05 4.34496e-22 0.000138253 7.47775e-22 4.13411e-38)
(4.06278e-05 6.93799e-05 -4.51744e-22 0.000119929 -7.47111e-22 4.13395e-38)
(4.28788e-05 6.56203e-05 4.76565e-25 0.000101449 7.57906e-25 3.71081e-44)
(4.48979e-05 6.07049e-05 0 8.3755e-05 0 0)
(4.67034e-05 5.472e-05 6.09602e-23 6.76519e-05 8.80282e-23 4.42326e-40)
(4.83504e-05 4.77938e-05 -5.76644e-23 5.3755e-05 -7.85587e-23 3.86851e-40)
(4.99199e-05 4.00867e-05 -1.88896e-24 4.24625e-05 -2.38105e-24 3.53912e-43)
(5.14892e-05 3.17725e-05 0 3.39549e-05 0 0)
(5.31132e-05 2.30294e-05 3.66139e-24 2.82132e-05 3.75311e-24 1.08008e-42)
(5.48279e-05 1.40533e-05 0 2.50754e-05 0 0)
(5.66496e-05 5.0413e-06 -1.10842e-22 2.42452e-05 -8.3568e-23 7.94516e-40)
(5.85723e-05 -3.82327e-06 2.16334e-22 2.53279e-05 1.31794e-22 2.86967e-39)
(6.05779e-05 -1.2377e-05 -2.12436e-22 2.78769e-05 -9.83592e-23 2.55007e-39)
(6.26393e-05 -2.04743e-05 -1.02673e-22 3.14312e-05 -3.2896e-23 5.19372e-40)
(6.46766e-05 -2.79884e-05 2.1125e-22 3.55567e-05 3.80218e-23 2.19832e-39)
(6.57629e-05 -3.51917e-05 0 4.02636e-05 0 0)
(3.97126e-06 1.76472e-05 0 8.25449e-05 0 0)
(5.6954e-06 2.35102e-05 -6.27652e-23 0.000101549 -1.49231e-22 2.64697e-38)
(7.83186e-06 2.99689e-05 7.45804e-23 0.000119629 1.73518e-22 2.55863e-38)
(1.02084e-05 3.66206e-05 0 0.000136857 0 0)
(1.27695e-05 4.32533e-05 0 0.000152587 0 0)
(1.54982e-05 4.97065e-05 -1.87093e-24 0.000166141 -4.03297e-24 5.88167e-42)
(1.83885e-05 5.58271e-05 0 0.000176886 0 0)
(2.14161e-05 6.14384e-05 2.43018e-24 0.000184278 4.9167e-24 5.57798e-42)
(2.46565e-05 6.6571e-05 -4.28827e-23 0.000188234 -8.323e-23 1.3066e-39)
(2.80394e-05 7.09996e-05 4.74771e-23 0.000188433 8.80302e-23 1.3262e-39)
(3.15968e-05 7.45204e-05 5.35173e-23 0.000184176 9.56529e-23 1.22589e-39)
(3.52843e-05 7.70758e-05 -5.63527e-23 0.000176058 -9.57803e-23 1.16227e-39)
(3.90185e-05 7.85518e-05 -1.87263e-24 0.000164604 -3.05909e-24 9.97074e-43)
(4.2722e-05 7.88656e-05 9.93279e-25 0.000150476 1.56105e-24 2.27455e-43)
(4.6284e-05 7.79346e-05 6.24058e-22 0.000134478 9.47599e-22 6.99937e-38)
(4.95913e-05 7.57023e-05 -6.51084e-22 0.000117475 -9.49721e-22 6.99905e-38)
(5.25518e-05 7.21509e-05 -1.10667e-24 0.000100328 -1.55679e-24 1.64769e-43)
(5.51141e-05 6.73118e-05 2.24446e-24 8.38351e-05 3.0316e-24 5.84198e-43)
(5.72788e-05 6.12708e-05 -7.16406e-23 6.86787e-05 -9.23047e-23 4.94471e-40)
(5.90987e-05 5.41659e-05 6.99591e-23 5.53994e-05 8.55905e-23 4.60603e-40)
(6.06659e-05 4.61759e-05 7.25518e-23 4.43709e-05 8.28008e-23 4.04475e-40)
(6.20836e-05 3.74995e-05 -7.02476e-23 3.57904e-05 -7.42429e-23 3.74387e-40)
(6.34414e-05 2.83475e-05 -4.24693e-24 2.97002e-05 -4.06548e-24 1.18625e-42)
(6.48086e-05 1.89365e-05 0 2.60058e-05 0 0)
(6.6229e-05 9.47743e-06 4.1117e-24 2.44911e-05 2.96538e-24 9.45562e-43)
(6.77183e-05 1.63553e-07 0 2.48446e-05 0 0)
(6.92822e-05 -8.83324e-06 0 2.66937e-05 0 0)
(7.0933e-05 -1.73584e-05 2.41203e-22 2.96357e-05 8.38944e-23 2.56332e-39)
(7.2589e-05 -2.52854e-05 -2.33404e-22 3.32695e-05 -5.20666e-23 2.34089e-39)
(7.27372e-05 -3.30658e-05 0 3.77296e-05 0 0)
(4.8974e-06 2.04626e-05 -5.50599e-23 8.93021e-05 -1.22935e-22 2.60482e-38)
(6.75892e-06 2.63678e-05 1.02193e-22 0.000107053 2.37627e-22 6.41802e-38)
(9.07632e-06 3.28611e-05 -4.06653e-23 0.000123677 -9.13914e-23 6.92175e-39)
(1.16792e-05 3.95499e-05 0 0.000139255 0 0)
(1.45358e-05 4.62544e-05 -5.73517e-23 0.000153224 -1.20053e-22 6.54653e-39)
(1.76533e-05 5.2838e-05 6.42478e-23 0.000164979 1.28166e-22 6.29865e-39)
(2.10403e-05 5.91563e-05 -7.35824e-23 0.000173987 -1.40892e-22 5.81546e-39)
(2.46854e-05 6.50444e-05 8.55608e-23 0.000179823 1.54812e-22 6.31977e-39)
(2.86939e-05 7.05676e-05 0 0.000182581 0 0)
(3.29638e-05 7.53901e-05 3.31596e-24 0.000181705 5.44045e-24 5.41337e-42)
(3.75512e-05 7.93878e-05 -5.89171e-23 0.000176935 -9.27171e-23 1.25411e-39)
(4.23607e-05 8.24469e-05 3.22501e-23 0.000168835 4.7627e-23 3.44148e-40)
(4.72884e-05 8.44387e-05 4.44752e-24 0.00015789 5.98662e-24 8.32974e-42)
(5.22014e-05 8.52444e-05 3.58193e-23 0.000144699 4.91186e-23 2.52327e-40)
(5.69281e-05 8.47504e-05 8.55187e-22 0.000129958 1.13769e-21 1.07235e-37)
(6.12937e-05 8.28719e-05 -8.94542e-22 0.000114393 -1.14464e-21 1.07225e-37)
(6.5151e-05 7.95677e-05 4.26157e-23 9.87093e-05 5.28322e-23 1.87302e-40)
(6.84082e-05 7.48527e-05 -5.65284e-24 8.35551e-05 -6.76109e-24 5.69293e-42)
(7.10448e-05 6.88051e-05 4.17172e-23 6.9492e-05 4.77242e-23 1.21948e-40)
(7.31121e-05 6.1564e-05 -8.494e-23 5.69777e-05 -9.30532e-23 5.44971e-40)
(7.47167e-05 5.33186e-05 -5.23843e-24 4.63509e-05 -5.40102e-24 1.77488e-42)
(7.59917e-05 4.42885e-05 0 3.78209e-05 0 0)
(7.70666e-05 3.47088e-05 1.59693e-22 3.14738e-05 1.40435e-22 1.31709e-39)
(7.805e-05 2.48183e-05 -1.63231e-22 2.72794e-05 -1.29545e-22 1.37186e-39)
(7.90194e-05 1.48462e-05 1.56641e-22 2.51003e-05 1.08425e-22 1.09476e-39)
(8.00171e-05 5.00023e-06 -1.50231e-22 2.47072e-05 -8.87406e-23 1.00253e-39)
(8.10722e-05 -4.53323e-06 -9.14494e-24 2.58054e-05 -4.3505e-24 3.36295e-42)
(8.22341e-05 -1.35828e-05 -1.39854e-22 2.80576e-05 -5.17897e-23 7.24836e-40)
(8.34359e-05 -2.20129e-05 4.06197e-22 3.11049e-05 1.04506e-22 5.81146e-39)
(8.25468e-05 -3.0523e-05 -2.83525e-22 3.51615e-05 -3.86287e-23 2.80375e-39)
(6.07755e-06 2.36315e-05 2.94362e-23 9.53412e-05 6.43378e-23 6.60146e-39)
(8.17491e-06 2.96683e-05 -3.91465e-23 0.000111563 -8.69194e-23 8.42783e-39)
(1.07601e-05 3.62419e-05 -4.76685e-23 0.000126564 -1.01245e-22 8.19384e-39)
(1.36926e-05 4.30175e-05 5.69424e-23 0.000140375 1.14489e-22 8.4167e-39)
(1.69686e-05 4.98446e-05 -6.3307e-23 0.000152492 -1.21203e-22 7.08602e-39)
(2.06173e-05 5.65998e-05 7.81817e-23 0.000162399 1.4072e-22 8.19244e-39)
(2.46608e-05 6.31419e-05 2.56836e-24 0.000169659 4.29937e-24 6.66998e-42)
(2.91166e-05 6.93376e-05 0 0.00017399 0 0)
(3.40921e-05 7.52312e-05 -5.42042e-23 0.00017555 -8.25049e-23 1.54405e-39)
(3.94836e-05 8.04345e-05 -3.7786e-24 0.000173684 -6.25111e-24 1.37887e-42)
(4.53418e-05 8.48795e-05 -4.11351e-24 0.000168521 -6.48126e-24 1.14083e-42)
(5.15309e-05 8.84122e-05 7.59041e-23 0.000160548 9.80961e-23 1.47012e-39)
(5.79128e-05 9.0892e-05 3.72593e-23 0.000150216 4.65805e-23 2.56326e-40)
(6.42907e-05 9.21742e-05 -6.38798e-23 0.000138065 -7.64396e-23 6.41171e-40)
(7.04225e-05 9.21217e-05 1.15188e-21 0.000124683 1.33889e-21 1.59617e-37)
(7.60621e-05 9.06249e-05 -1.15993e-21 0.000110659 -1.30063e-21 1.47439e-37)
(8.09997e-05 8.76188e-05 -7.24203e-23 9.65498e-05 -7.90442e-23 4.532e-40)
(8.50979e-05 8.30977e-05 5.55676e-23 8.28582e-05 5.8777e-23 2.42777e-40)
(8.8313e-05 7.71243e-05 9.88369e-23 7.00253e-05 1.00925e-22 6.10821e-40)
(9.06954e-05 6.983e-05 5.26199e-24 5.84227e-05 4.84723e-24 8.07767e-43)
(9.23706e-05 6.1405e-05 5.06786e-24 4.83452e-05 4.33681e-24 7.53969e-43)
(9.35059e-05 5.20806e-05 -9.71686e-23 4.0002e-05 -8.55718e-23 4.68106e-40)
(9.4275e-05 4.21096e-05 0 3.3512e-05 0 0)
(9.48318e-05 3.17508e-05 -5.8747e-24 2.89019e-05 -4.30619e-24 1.38763e-42)
(9.52944e-05 2.12523e-05 1.6702e-22 2.6107e-05 1.10164e-22 1.0147e-39)
(9.57366e-05 1.08392e-05 -1.75663e-22 2.49771e-05 -1.0116e-22 1.12886e-39)
(9.62154e-05 7.15123e-07 1.67465e-22 2.52973e-05 8.08586e-23 9.11842e-40)
(9.68154e-05 -8.92377e-06 -1.55043e-22 2.67988e-05 -6.03243e-23 7.81796e-40)
(9.74922e-05 -1.79254e-05 -1.50254e-22 2.91754e-05 -4.31128e-23 6.49878e-40)
(9.54757e-05 -2.72928e-05 1.68597e-22 3.26663e-05 3.04298e-23 8.3642e-40)
(7.62936e-06 2.72344e-05 0 0.000100359 0 0)
(1.00783e-05 3.34695e-05 -3.84391e-23 0.000114822 -7.94641e-23 6.90189e-39)
(1.30376e-05 4.01584e-05 5.61335e-23 0.000128075 1.08869e-22 1.02557e-38)
(1.64241e-05 4.70529e-05 -6.35401e-23 0.000140029 -1.16049e-22 8.80622e-39)
(2.02636e-05 5.40244e-05 7.05168e-23 0.000150235 1.19875e-22 8.01246e-39)
(2.46067e-05 6.09571e-05 -7.72679e-23 0.000158271 -1.23506e-22 6.60215e-39)
(2.94863e-05 6.77086e-05 8.8852e-23 0.000163803 1.31546e-22 6.77955e-39)
(3.49832e-05 7.42165e-05 6.70497e-24 0.000166716 9.27846e-24 2.83137e-41)
(4.11353e-05 8.04017e-05 3.80524e-24 0.000167079 4.96151e-24 6.79074e-42)
(4.7904e-05 8.59407e-05 4.27635e-24 0.000164366 5.27086e-24 6.45807e-42)
(5.52901e-05 9.07715e-05 4.81942e-24 0.000158944 5.67479e-24 6.10515e-42)
(6.31285e-05 9.47224e-05 -2.64337e-24 0.000151217 -2.9692e-24 1.42335e-42)
(7.12317e-05 9.76453e-05 4.84238e-23 0.000141611 5.24135e-23 3.63278e-40)
(7.93298e-05 9.93808e-05 -2.45009e-23 0.000130601 -2.51642e-23 8.85376e-41)
(8.71014e-05 9.9775e-05 1.42388e-21 0.000118671 1.44675e-21 2.01012e-37)
(9.42207e-05 9.8697e-05 -1.54737e-21 0.000106278 -1.52338e-21 2.15896e-37)
(0.000100409 9.60574e-05 -2.78029e-23 9.38379e-05 -2.69059e-23 4.77691e-41)
(0.000105481 9.18245e-05 5.01439e-23 8.17175e-05 4.71267e-23 1.64078e-40)
(0.000109368 8.60377e-05 -3.61349e-24 7.02398e-05 -3.30245e-24 6.97865e-43)
(0.000112121 7.88107e-05 -1.44465e-23 5.96886e-05 -1.27699e-23 9.85853e-42)
(0.00011389 7.03249e-05 -7.1884e-24 5.03083e-05 -6.08878e-24 2.18566e-42)
(0.00011488 6.0813e-05 -7.08875e-24 4.22964e-05 -5.69661e-24 1.93194e-42)
(0.000115314 5.05382e-05 -1.39013e-23 3.57933e-05 -1.04612e-23 6.8328e-42)
(0.000115397 3.97745e-05 2.27843e-22 3.08733e-05 1.58309e-22 1.65468e-39)
(0.000115293 2.87877e-05 -2.2434e-22 2.75364e-05 -1.41901e-22 1.60826e-39)
(0.000115112 1.78208e-05 2.02064e-22 2.57069e-05 1.12698e-22 1.15139e-39)
(0.000114947 7.09663e-06 -1.863e-22 2.52473e-05 -8.99458e-23 9.87694e-40)
(0.000114917 -3.1609e-06 1.65607e-22 2.59607e-05 6.63503e-23 6.95286e-40)
(0.000115001 -1.27755e-05 -1.97719e-22 2.75993e-05 -6.32541e-23 9.95441e-40)
(0.000111786 -2.30964e-05 0 3.03757e-05 0 0)
(9.69889e-06 3.13225e-05 0 0.000104072 0 0)
(1.2636e-05 3.77918e-05 -2.84418e-24 0.000116591 -5.26117e-24 3.3792e-41)
(1.6096e-05 4.46094e-05 4.90458e-23 0.000128007 8.50361e-23 6.49315e-39)
(2.00811e-05 5.16244e-05 3.14799e-26 0.000138039 5.2007e-25 3.51164e-42)
(2.46496e-05 5.87268e-05 -7.91606e-23 0.000146309 -1.17214e-22 8.70178e-39)
(2.98727e-05 6.58054e-05 -5.84203e-24 0.00015249 -8.08405e-24 3.28203e-41)
(3.57964e-05 7.27188e-05 -6.59854e-24 0.000156348 -8.34815e-24 3.19183e-41)
(4.25694e-05 7.94821e-05 5.33994e-23 0.000157948 6.37994e-23 1.46377e-39)
(5.0144e-05 8.58658e-05 -7.38893e-23 0.00015718 -8.22209e-23 2.21043e-39)
(5.85578e-05 9.16663e-05 -7.37205e-26 0.000153806 -1.23989e-25 1.51372e-46)
(6.77395e-05 9.67939e-05 4.34982e-23 0.000148258 4.3981e-23 4.1031e-40)
(7.75014e-05 0.000101091 -4.77795e-23 0.000140903 -4.56999e-23 4.15251e-40)
(8.75904e-05 0.000104405 2.27272e-23 0.000132136 2.12888e-23 6.69766e-41)
(9.7655e-05 0.000106572 -2.78973e-23 0.000122361 -2.51209e-23 8.8606e-41)
(0.000107286 0.000107427 1.81525e-21 0.000111962 1.61421e-21 2.74505e-37)
(0.000116071 0.000106821 -1.90379e-21 0.000101274 -1.65026e-21 2.74508e-37)
(0.000123659 0.000104637 -3.20949e-23 9.05809e-05 -2.74732e-23 5.88026e-41)
(0.000129814 0.000100812 3.70496e-23 8.01221e-05 3.10956e-23 7.35241e-41)
(0.000134445 9.53538e-05 -6.22861e-23 7.01083e-05 -5.11698e-23 1.62995e-40)
(0.000137607 8.83485e-05 8.36492e-23 6.07367e-05 6.71e-23 2.84165e-40)
(0.000139476 7.99579e-05 -5.56597e-26 5.21962e-05 -2.82119e-26 8.58138e-47)
(0.000140304 7.04063e-05 -1.30453e-22 4.46629e-05 -9.65363e-23 5.17881e-40)
(0.000140365 5.9959e-05 1.44962e-22 3.82878e-05 1.02206e-22 6.3793e-40)
(0.000139922 4.89e-05 1.57669e-23 3.31817e-05 1.03103e-23 6.70245e-42)
(0.000139188 3.75103e-05 1.51306e-23 2.93999e-05 9.16728e-24 5.85386e-42)
(0.000138316 2.6049e-05 -2.34818e-22 2.6935e-05 -1.27433e-22 1.28279e-39)
(0.000137437 1.47609e-05 3.16904e-24 2.5721e-05 1.96336e-24 4.03408e-42)
(0.000136714 3.89663e-06 2.50081e-22 2.56351e-05 1.03187e-22 1.39091e-39)
(0.000136143 -6.33988e-06 0 2.64921e-05 0 0)
(0.000131685 -1.76663e-05 0 2.84301e-05 0 0)
(1.24669e-05 3.59056e-05 0 0.000106212 0 0)
(1.60513e-05 4.26045e-05 5.53945e-23 0.000116653 9.08042e-23 1.04259e-38)
(2.01572e-05 4.95299e-05 1.08957e-25 0.000126173 5.8362e-25 3.24754e-42)
(2.49055e-05 5.66304e-05 -1.91449e-27 0.000134262 4.78209e-25 3.90249e-42)
(3.03906e-05 6.38138e-05 -1.72664e-22 0.000140616 -2.18149e-22 3.47846e-38)
(3.67018e-05 7.09706e-05 1.04098e-22 0.000145005 1.20484e-22 9.33617e-39)
(4.39078e-05 7.79753e-05 7.57529e-24 0.000147302 8.18677e-24 3.48671e-41)
(5.21869e-05 8.48717e-05 0 0.000147692 0 0)
(6.14583e-05 9.13497e-05 -7.36078e-23 0.000145929 -6.99402e-23 1.76609e-39)
(7.17877e-05 9.73048e-05 8.25272e-23 0.000142078 7.30544e-23 1.8075e-39)
(8.30407e-05 0.000102632 -4.91286e-23 0.000136556 -4.22741e-23 4.50153e-40)
(9.49952e-05 0.000107197 -1.52131e-25 0.000129708 -8.08579e-25 9.24135e-43)
(0.000107322 0.000110853 5.86725e-23 0.000121887 4.67649e-23 4.23424e-40)
(0.000119579 0.000113439 -1.96813e-24 0.000113431 -1.54795e-24 3.63059e-43)
(0.000131263 0.000114785 2.22291e-21 0.000104625 1.73434e-21 3.50893e-37)
(0.00014187 0.000114724 -2.33141e-21 9.56952e-05 -1.78624e-21 3.51215e-37)
(0.000150976 0.000113109 2.28608e-24 8.68043e-05 1.74091e-24 2.66027e-43)
(0.000158293 0.000109839 7.49789e-23 7.80753e-05 5.6536e-23 2.30124e-40)
(0.000163711 0.00010488 -1.78481e-25 6.96148e-05 -2.29759e-25 9.39033e-43)
(0.000167294 9.828e-05 -9.57356e-23 6.15355e-05 -7.00168e-23 3.12021e-40)
(0.00016925 9.01727e-05 1.61385e-22 5.39678e-05 1.1465e-22 7.28549e-40)
(0.00016988 8.07636e-05 -1.5107e-22 4.70587e-05 -1.04254e-22 6.31794e-40)
(0.000169519 7.03123e-05 0 4.0959e-05 0 0)
(0.000168489 5.9107e-05 -1.79444e-23 3.58046e-05 -1.11873e-23 7.32198e-42)
(0.000167059 4.74403e-05 2.7957e-22 3.16958e-05 1.61298e-22 1.59826e-39)
(0.000165428 3.55864e-05 -5.62123e-22 2.86842e-05 -2.98031e-22 6.31863e-39)
(0.00016377 2.38118e-05 3.32218e-24 2.677e-05 2.14529e-24 4.44458e-42)
(0.000162291 1.23945e-05 -1.28765e-23 2.59022e-05 -4.9187e-24 2.25904e-42)
(0.000161008 1.56376e-06 2.47776e-22 2.59616e-05 8.92545e-23 1.08422e-39)
(0.000155296 -1.07671e-05 0 2.69723e-05 0 0)
(1.61521e-05 4.09345e-05 6.00578e-24 0.000106545 8.98524e-24 1.65787e-40)
(2.05641e-05 4.78096e-05 0 0.000114832 0 0)
(2.54804e-05 5.47854e-05 4.51207e-24 0.000122436 5.75114e-24 3.98506e-41)
(3.1176e-05 6.18998e-05 -7.95602e-23 0.000128609 -9.17977e-23 8.75842e-39)
(3.77831e-05 6.90745e-05 9.9845e-23 0.000133116 1.04077e-22 1.03138e-38)
(4.54048e-05 7.62023e-05 -1.16871e-22 0.000135826 -1.12906e-22 9.72071e-39)
(5.41547e-05 8.3201e-05 1.34498e-22 0.000136729 1.18468e-22 9.99087e-39)
(6.41791e-05 9.00726e-05 7.72943e-23 0.000136016 6.45882e-23 2.29834e-39)
(7.54277e-05 9.65207e-05 -1.86621e-22 0.00013345 -1.4631e-22 1.02937e-38)
(8.79404e-05 0.000102509 -6.52998e-24 0.000129318 -6.22752e-24 2.12676e-42)
(0.000101534 0.000107936 1.02781e-22 0.000123984 7.34048e-23 1.88106e-39)
(0.000115934 0.000112692 -6.06205e-23 0.000117773 -4.30013e-23 4.60869e-40)
(0.000130727 0.000116652 3.26708e-23 0.000110997 2.20607e-23 1.27043e-40)
(0.000145374 0.000119663 5.53418e-23 0.000103924 3.7866e-23 2.52928e-40)
(0.000159268 0.000121553 2.65005e-21 9.67533e-05 1.81903e-21 4.3232e-37)
(0.000171815 0.000122135 -2.81402e-21 8.96092e-05 -1.91334e-21 4.44333e-37)
(0.000182515 0.000121228 5.92922e-23 8.255e-05 4.04507e-23 1.51548e-40)
(0.000191034 0.000118685 4.24612e-23 7.55948e-05 2.89152e-23 5.63172e-41)
(0.000197246 0.000114422 -8.61823e-23 6.8755e-05 -5.83926e-23 2.49509e-40)
(0.00020123 0.000108439 1.95074e-22 6.20627e-05 1.30431e-22 1.01149e-39)
(0.000203233 0.00010083 1.03222e-23 5.55883e-05 6.16326e-24 1.29675e-42)
(0.00020361 9.17741e-05 -3.21386e-22 4.94431e-05 -2.06253e-22 2.31371e-39)
(0.000202761 8.15178e-05 1.69103e-22 4.37678e-05 1.05107e-22 6.12035e-40)
(0.000201073 7.03478e-05 3.28599e-22 3.87119e-05 1.93587e-22 1.97684e-39)
(0.000198875 5.85642e-05 -3.22553e-22 3.44103e-05 -1.80318e-22 1.92245e-39)
(0.000196415 4.64553e-05 3.09856e-22 3.09634e-05 1.60029e-22 1.56086e-39)
(0.000193913 3.43078e-05 -3.2227e-22 2.84315e-05 -1.52891e-22 1.70221e-39)
(0.000191622 2.24279e-05 1.83693e-23 2.68288e-05 7.75474e-24 5.02305e-42)
(0.000189572 1.10673e-05 0 2.61019e-05 0 0)
(0.000182626 -2.20958e-06 -3.60205e-23 2.61367e-05 -1.06809e-23 1.72203e-41)
(2.10121e-05 4.62887e-05 -6.98487e-24 0.000104882 -9.03006e-24 1.79295e-40)
(2.64517e-05 5.32358e-05 7.03784e-23 0.000111009 8.08497e-23 1.2303e-38)
(3.23589e-05 6.01657e-05 -7.99469e-23 0.00011673 -8.20877e-23 1.13113e-38)
(3.92008e-05 6.71833e-05 -6.00474e-24 0.000121063 -5.66278e-24 4.32451e-41)