/*--------------------------------*- C++ -*----------------------------------*\
  =========                 |
  \\      /  F ield         | OpenFOAM: The Open Source CFD Toolbox
   \\    /   O peration     | Website:  https://openfoam.org
    \\  /    A nd           | Version:  12
     \\/     M anipulation  |
\*---------------------------------------------------------------------------*/
FoamFile
{
    format      ascii;
    class       volScalarField;
    location    "120";
    object      p;
}
// * * * * * * * * * * * * * * * * * * * * * * * * * * * * * * * * * * * * * //

dimensions      [0 2 -2 0 0 0 0];

internalField   nonuniform List<scalar> 
6750
(
0.0215907
0.0215687
0.0215396
0.0213762
0.0203456
0.0231061
0.0230693
0.0229415
0.022675
0.0223149
0.0248967
0.0248372
0.0247061
0.0245076
0.0243541
0.0267758
0.0266814
0.0265567
0.0264159
0.0263386
0.0286416
0.0285032
0.0283687
0.0282557
0.0282166
0.0304144
0.0302275
0.0300721
0.029969
0.0299472
0.0320456
0.031809
0.0316289
0.0315286
0.0315152
0.0335061
0.0332203
0.0330155
0.032916
0.0329078
0.0347772
0.0344448
0.0342173
0.0341185
0.0341139
0.0358486
0.0354736
0.0352266
0.0351291
0.0351271
0.0367169
0.0363048
0.036042
0.0359465
0.0359463
0.0373854
0.0369423
0.0366684
0.0365751
0.036576
0.0378632
0.0373955
0.0371154
0.0370245
0.0370257
0.0381648
0.0376781
0.0373981
0.0373084
0.0373089
0.0383029
0.0378105
0.0375359
0.0374437
0.0374421
0.0383027
0.0378104
0.0375357
0.0374436
0.037442
0.0381643
0.0376776
0.0373977
0.037308
0.0373085
0.0378625
0.0373948
0.0371146
0.0370238
0.037025
0.0373843
0.0369413
0.0366673
0.0365741
0.036575
0.0367156
0.0363034
0.0360407
0.0359451
0.035945
0.0358469
0.035472
0.0352249
0.0351274
0.0351254
0.0347752
0.0344428
0.0342153
0.0341165
0.0341119
0.0335037
0.0332179
0.0330131
0.0329136
0.0329054
0.0320429
0.0318062
0.0316261
0.0315258
0.0315125
0.0304112
0.0302244
0.030069
0.0299659
0.0299441
0.028638
0.0284997
0.0283651
0.0282521
0.028213
0.0267718
0.0266775
0.0265528
0.0264119
0.0263346
0.0248924
0.0248328
0.0247018
0.0245032
0.0243497
0.0231013
0.0230645
0.0229367
0.0226702
0.0223101
0.0215854
0.0215635
0.0215343
0.021371
0.0203402
0.014153
0.0147477
0.0162199
0.0173077
0.0180958
0.0187213
0.0192106
0.0195747
0.0198416
0.0200217
0.0200783
0.0200855
0.0200152
0.0198638
0.0196303
0.0193114
0.0189044
0.0184128
0.0178395
0.0171792
0.0164124
0.0157108
0.0149597
0.0141805
0.0133994
0.0126306
0.0118841
0.0111741
0.0105101
0.00984598
0.0180694
0.018867
0.0196682
0.0200693
0.0202976
0.0204376
0.0204914
0.0204681
0.0203966
0.0202735
0.0200588
0.019866
0.0196543
0.0194267
0.0191821
0.0189116
0.0186029
0.0182453
0.017828
0.01735
0.0168433
0.0161877
0.0155237
0.014821
0.0140861
0.0133318
0.0125665
0.0118045
0.0110842
0.0103882
0.020552
0.0207355
0.0210503
0.0212036
0.0212782
0.0212846
0.021211
0.0210677
0.0208768
0.0206007
0.0202472
0.019907
0.0195383
0.0191525
0.0187557
0.0183478
0.0179257
0.0174842
0.0170178
0.0165217
0.0159965
0.0154387
0.0148598
0.0142561
0.0136315
0.0129927
0.0123411
0.0116877
0.0111182
0.0107085
0.0219943
0.0217688
0.021897
0.021979
0.0219868
0.0219176
0.0217664
0.02155
0.0212776
0.0208785
0.0204291
0.0199652
0.0194589
0.0189271
0.0183816
0.0178304
0.0172791
0.0167306
0.016186
0.0156433
0.0151011
0.0145664
0.0140346
0.0135015
0.0129667
0.0124309
0.0118871
0.0113383
0.0109132
0.0108391
0.0230832
0.0227096
0.0227553
0.0227664
0.0226906
0.0225339
0.0222968
0.0219945
0.0216248
0.0211111
0.0205659
0.0199822
0.0193511
0.0186926
0.018022
0.0173527
0.016696
0.0160602
0.0154505
0.0148685
0.0143137
0.0137865
0.0132837
0.0127998
0.0123308
0.0118731
0.011413
0.0109441
0.0106276
0.0108585
0.0240283
0.0236158
0.0235966
0.0235273
0.0233654
0.0231222
0.0227989
0.0224072
0.02193
0.021312
0.0206669
0.0199681
0.0192207
0.0184468
0.0176648
0.0168921
0.0161438
0.015432
0.0147644
0.0141448
0.0135735
0.0130479
0.0125641
0.0121156
0.0116963
0.0112995
0.0109066
0.0105034
0.0102774
0.0107823
0.0248639
0.0244579
0.0243806
0.0242344
0.0239936
0.0236694
0.0232647
0.022787
0.0221969
0.0214858
0.0207408
0.0199326
0.019076
0.0181944
0.0173092
0.016441
0.0156081
0.014825
0.0141018
0.0134434
0.0128506
0.0123203
0.0118472
0.0114236
0.0110419
0.0106935
0.0103552
0.0100079
0.00986195
0.0106104
0.0256106
0.0252413
0.0251135
0.0248956
0.0245805
0.0241787
0.0236966
0.0231343
0.0224309
0.0216369
0.0207921
0.0198793
0.0189191
0.0179363
0.0169544
0.0159968
0.0150843
0.0142335
0.013456
0.0127579
0.0121402
0.0115997
0.0111301
0.0107227
0.0103686
0.0100578
0.0097633
0.00946251
0.00938757
0.0103461
0.0262904
0.0259795
0.0258076
0.0255208
0.0251338
0.0246574
0.0240992
0.0234477
0.0226415
0.0217665
0.0208229
0.0198098
0.0187508
0.0176717
0.0165985
0.0155564
0.0145683
0.0136527
0.0128221
0.0120837
0.0114387
0.0108836
0.0104115
0.010013
0.00967833
0.00939595
0.00913564
0.00887315
0.0088611
0.00999529
0.0269205
0.0266825
0.0264711
0.0261169
0.0256599
0.025112
0.0244775
0.0237292
0.0228343
0.0218748
0.0208351
0.0197254
0.0185714
0.0174002
0.0162394
0.0151165
0.0140559
0.0130773
0.0121946
0.0114151
0.0107406
0.0101673
0.0096878
0.00929214
0.00896993
0.00870829
0.00847403
0.00824278
0.00828683
0.00956415
0.0275132
0.0273582
0.0271109
0.0266898
0.026163
0.0255455
0.0248348
0.023986
0.0230122
0.0219652
0.0208313
0.0196277
0.0183814
0.0171207
0.0158753
0.014674
0.0135428
0.0125024
0.0115675
0.0107461
0.0100399
0.00944517
0.00895413
0.00855626
0.00824063
0.0079932
0.00777807
0.00757209
0.00766653
0.00905773
0.0280789
0.028014
0.0277337
0.0272452
0.0266486
0.0259636
0.0251733
0.0242257
0.0231772
0.0220407
0.0208137
0.0195179
0.0181809
0.0168325
0.015504
0.0142256
0.0130246
0.0119227
0.0109352
0.0100705
0.00933056
0.00871148
0.00820511
0.00780058
0.00748649
0.00724764
0.00704573
0.00685992
0.00699988
0.00847969
0.0286272
0.028657
0.0283465
0.027791
0.0271259
0.0263694
0.0254919
0.0244578
0.0233308
0.0221037
0.0207842
0.0193968
0.0179698
0.0165344
0.0151233
0.0137682
0.0124973
0.0113333
0.0102921
0.00938247
0.00860637
0.00795992
0.00743468
0.00701945
0.0067024
0.00646718
0.00627328
0.00610324
0.0062845
0.00783186
0.0291681
0.0292939
0.0289558
0.0283332
0.0275992
0.0267697
0.0257983
0.0246863
0.0234753
0.0221564
0.0207446
0.0192652
0.0177477
0.0162249
0.0147307
0.0132981
0.0119564
0.0107289
0.00963225
0.00867541
0.00786052
0.0071836
0.00663599
0.0062062
0.00588202
0.00564589
0.00545536
0.00529716
0.00551601
0.00711402
0.0297085
0.0299341
0.0295701
0.0288797
0.0280763
0.0271686
0.0261018
0.0249141
0.0236143
0.022202
0.0206962
0.0191234
0.017514
0.0159023
0.0143235
0.0128117
0.0113971
0.010104
0.00894927
0.00794242
0.00708561
0.00637483
0.00580122
0.00535303
0.00501766
0.00477634
0.00458482
0.00443484
0.00468797
0.00632354
0.0302558
0.030589
0.0302018
0.0294432
0.0285634
0.0275664
0.0264135
0.0251441
0.0237511
0.0222428
0.0206406
0.0189716
0.0172677
0.0155644
0.0138983
0.0123045
0.0108141
0.00945214
0.00823611
0.00717574
0.00627336
0.00552492
0.00492137
0.00445076
0.00410011
0.00384934
0.0036526
0.00350734
0.0037917
0.00545511
0.0308202
0.0312712
0.0308622
0.0300325
0.0290695
0.0279734
0.0267399
0.0253802
0.0238893
0.0222813
0.0205788
0.0188098
0.0170075
0.0152087
0.0134512
0.0117714
0.0102012
0.00876627
0.0074847
0.00636655
0.00541428
0.00462382
0.00398596
0.00348858
0.0031183
0.00285368
0.0026474
0.0025033
0.00281602
0.00450043
0.0314192
0.0319939
0.0315651
0.0306536
0.0295977
0.0284054
0.0270862
0.0256276
0.0240332
0.0223201
0.0205118
0.0186372
0.0167311
0.0148315
0.0129775
0.0112064
0.00955107
0.00803796
0.00668565
0.00550455
0.00449727
0.00365973
0.0029826
0.00245359
0.00205893
0.00177572
0.0015553
0.00140857
0.00174679
0.00344766
0.0320761
0.0327669
0.0323202
0.031322
0.0301591
0.0288737
0.0274567
0.0258914
0.0241867
0.0223615
0.0204401
0.0184529
0.0164359
0.0144285
0.012471
0.0106019
0.00885484
0.00725706
0.00582767
0.0045774
0.00350905
0.00261851
0.00189638
0.00133021
0.000905787
0.000598701
0.000359082
0.000205463
0.000566203
0.00228074
0.0328093
0.0336098
0.0331461
0.0320506
0.0307713
0.0293869
0.0278605
0.026179
0.0243548
0.0224079
0.0203639
0.0182546
0.0161176
0.0139935
0.0119239
0.00994832
0.00810141
0.00641104
0.00489687
0.00356999
0.00243335
0.00148287
0.000709031
9.92598e-05
-0.000361113
-0.000698118
-0.000962727
-0.00112814
-0.000748235
0.000978354
0.0336446
0.034556
0.034064
0.0328512
0.0314568
0.0299583
0.0283087
0.0264986
0.0245424
0.0224613
0.0202824
0.0180392
0.0157704
0.0135184
0.0113259
0.0092334
0.00727658
0.00548397
0.00387575
0.00246333
0.00124983
0.000231161
-0.000602288
-0.00126322
-0.00176683
-0.00214082
-0.0024372
-0.00262029
-0.00222522
-0.000487654
0.0346229
0.035627
0.0350941
0.0337587
0.0322371
0.0306041
0.0288142
0.0268593
0.0247547
0.0225233
0.0201938
0.0178012
0.015386
0.0129919
0.0106629
0.00844069
0.00636169
0.00445513
0.00274166
0.00123299
-6.76275e-05
-0.00116432
-0.00206679
-0.00278789
-0.00334339
-0.0037628
-0.00409904
-0.00430699
-0.0039019
-0.00215462
0.0357907
0.0368678
0.0362771
0.0348104
0.0331362
0.0313449
0.029393
0.0272716
0.0249972
0.0225944
0.0200938
0.0175322
0.0149519
0.0123979
0.00991568
0.00754779
0.00533156
0.00329677
0.00146449
-0.000153354
-0.00155344
-0.00273996
-0.00372276
-0.00451489
-0.00513272
-0.00560771
-0.00599364
-0.00623544
-0.00582723
-0.00407274
0.0372159
0.038339
0.037673
0.0360472
0.0341873
0.0322076
0.0300645
0.0277477
0.0252749
0.022673
0.0199747
0.0172189
0.0144495
0.0117132
0.00905662
0.00652331
0.00415128
0.00197076
3.07991e-06
-0.0017397
-0.0032543
-0.00454502
-0.00562191
-0.00649825
-0.00719117
-0.00773414
-0.00818183
-0.00846887
-0.0080673
-0.00631084
0.0390108
0.0401338
0.0393536
0.0375236
0.0354365
0.0332279
0.0308533
0.0283015
0.025592
0.022754
0.019823
0.0168398
0.0138504
0.010903
0.00804533
0.00532179
0.00277079
0.000422803
-0.00170079
-0.003588
-0.00523566
-0.00664832
-0.00783629
-0.00881315
-0.00959691
-0.0102232
-0.0107476
-0.0110945
-0.0107139
-0.00896628
0.0413032
0.042376
0.0414184
0.0393233
0.0369501
0.0344548
0.0317921
0.0289502
0.0259507
0.0228262
0.0196148
0.0163601
0.0131098
0.00991371
0.00682052
0.003875
0.00111561
-0.00142736
-0.00373281
-0.00578902
-0.00759317
-0.00915011
-0.0104704
-0.0115682
-0.0124623
-0.0131906
-0.0138097
-0.0142351
-0.013897
-0.0121793
0.0443476
0.0452592
0.0440235
0.0415733
0.0388275
0.0359599
0.0329256
0.0297132
0.0263476
0.0228651
0.0193073
0.0157204
0.0121543
0.00865983
0.00528594
0.0020771
-0.000928993
-0.00370292
-0.00622442
-0.00848245
-0.0104746
-0.0122061
-0.0136877
-0.0149338
-0.0159643
-0.0168188
-0.0175548
-0.018082
-0.0178198
-0.0161727
0.0485263
0.0490653
0.0473761
0.0444339
0.0411895
0.0378262
0.0343004
0.0306032
0.026764
0.0228238
0.0188284
0.0148273
0.010872
0.00701385
0.00330096
-0.000223817
-0.00352489
-0.00657499
-0.00935566
-0.0118572
-0.0140786
-0.0160244
-0.0177064
-0.019139
-0.0203426
-0.0213575
-0.022241
-0.0229033
-0.0227754
-0.0212842
0.0547099
0.0545023
0.0520689
0.0484268
0.0444777
0.0403941
0.0361446
0.0317345
0.0272045
0.0226054
0.0179903
0.013413
0.00892639
0.00458069
0.000420982
-0.0035142
-0.00719385
-0.0105948
-0.0137014
-0.0165041
-0.0190053
-0.0212233
-0.0231541
-0.0248121
-0.0262185
-0.0274113
-0.0284435
-0.0292407
-0.0293101
-0.0281412
0.0655042
0.0636115
0.0596251
0.054754
0.0496425
0.044387
0.038984
0.0334689
0.0278996
0.0223363
0.0168363
0.0114526
0.00623297
0.00121857
-0.00355633
-0.00806447
-0.0122851
-0.0162038
-0.0198121
-0.0231078
-0.0260864
-0.0287379
-0.0310862
-0.0331398
-0.0349099
-0.036422
-0.0377212
-0.0387968
-0.0393533
-0.0388355
0.017826
0.0187624
0.0205105
0.0218919
0.0230449
0.0241163
0.0251399
0.0261248
0.0270809
0.0280175
0.028943
0.029865
0.0307916
0.0317315
0.0326928
0.033686
0.0347241
0.0358234
0.0370027
0.0382832
0.0396928
0.0412708
0.0430649
0.0451409
0.0475879
0.0505405
0.0541839
0.0587308
0.0644079
0.0717353
0.022148
0.0231222
0.0242459
0.0251801
0.0260118
0.0268031
0.0275656
0.0283035
0.0290241
0.0297355
0.0304458
0.0311627
0.0318949
0.0326511
0.033441
0.0342763
0.0351708
0.0361416
0.0372087
0.0383969
0.0397386
0.0412768
0.0430682
0.0451907
0.0477541
0.0509205
0.0549244
0.0600871
0.0668952
0.0759358
0.0244539
0.0253213
0.0261622
0.0269114
0.0276375
0.0283569
0.0290666
0.0297674
0.0304643
0.0311631
0.0318699
0.0325913
0.0333347
0.0341082
0.0349214
0.0357857
0.0367151
0.0377271
0.0388427
0.0400891
0.0415013
0.0431264
0.0450272
0.047291
0.0500415
0.0534579
0.0578059
0.0634638
0.0710816
0.0813497
0.0264642
0.0272228
0.0279485
0.0286183
0.0292807
0.0299457
0.0306122
0.031283
0.0319631
0.032658
0.0333734
0.0341154
0.0348912
0.0357088
0.0365778
0.0375099
0.0385194
0.0396242
0.0408466
0.042215
0.0437669
0.0455522
0.0476379
0.0501171
0.0531211
0.0568391
0.0615514
0.067653
0.0758848
0.0869835
0.02834
0.0290061
0.0296425
0.0302415
0.0308442
0.0314606
0.0320913
0.0327392
0.0334084
0.0341037
0.0348303
0.035594
0.0364018
0.0372619
0.0381841
0.0391805
0.040266
0.0414593
0.0427838
0.0442698
0.0459569
0.0478976
0.0501625
0.0528494
0.0560952
0.0600967
0.0651442
0.0716437
0.0804198
0.0922669
0.0300528
0.030637
0.0311977
0.0317374
0.0322931
0.0328736
0.0334796
0.0341132
0.0347781
0.0354784
0.036219
0.0370056
0.037845
0.0387454
0.0397169
0.0407718
0.0419255
0.0431974
0.0446122
0.0462014
0.0480064
0.050082
0.0525021
0.0553679
0.0588215
0.063066
0.0684015
0.0752469
0.0845086
0.0970631
0.0315997
0.0321109
0.0326075
0.0330989
0.0336179
0.0341717
0.0347604
0.0353857
0.036051
0.0367599
0.0375169
0.0383276
0.0391985
0.0401378
0.0411559
0.0422652
0.0434815
0.0448249
0.0463208
0.0480019
0.0499111
0.0521049
0.0546596
0.0576796
0.0613108
0.0657621
0.0713422
0.0784838
0.0881594
0.101342
0.0329761
0.0334216
0.0338634
0.0343153
0.0348055
0.0353392
0.0359161
0.0365376
0.0372063
0.0379257
0.0386999
0.0395342
0.0404351
0.0414109
0.0424718
0.0436305
0.0449034
0.0463107
0.0478786
0.0496409
0.0516413
0.053938
0.0566091
0.0597614
0.0635441
0.0681706
0.0739574
0.0813492
0.091364
0.105078
0.0341734
0.0345601
0.0349554
0.0353755
0.0358434
0.0363623
0.0369314
0.0375518
0.0382257
0.0389562
0.039747
0.0406034
0.0415316
0.04254
0.0436388
0.044841
0.046163
0.0476258
0.0492558
0.0510876
0.053166
0.0555501
0.0583195
0.061583
0.0654924
0.0702647
0.076223
0.0838223
0.0941052
0.108257
0.0351848
0.0355197
0.0358764
0.0362715
0.0367224
0.0372306
0.0377949
0.038416
0.0390957
0.0398368
0.0406428
0.0415186
0.0424706
0.043507
0.0446382
0.0458772
0.0472407
0.0487498
0.0504317
0.0523213
0.054464
0.0569201
0.0597702
0.0631246
0.067137
0.0720276
0.0781245
0.0858915
0.0963783
0.110885
0.0360072
0.0362983
0.0366241
0.0370001
0.0374385
0.037939
0.0385005
0.0391231
0.0398085
0.0405589
0.0413779
0.0422701
0.0432419
0.0443014
0.045459
0.0467279
0.048125
0.0496716
0.0513951
0.0533309
0.055525
0.0580383
0.0609523
0.0643783
0.068472
0.0734552
0.0796607
0.0875591
0.0981934
0.112982
0.0366428
0.0368985
0.0372008
0.0375629
0.0379923
0.0384876
0.0390475
0.039672
0.0403622
0.0411204
0.0419497
0.0428549
0.0438422
0.0449197
0.0460978
0.0473899
0.0488128
0.0503881
0.0521435
0.0541146
0.0563478
0.0589045
0.0618669
0.0653471
0.0695018
0.0745546
0.0808415
0.0888387
0.0995727
0.114582
0.0370987
0.0373282
0.0376138
0.0379664
0.0383897
0.0388816
0.0394408
0.0400669
0.0407609
0.0415248
0.0423619
0.0432766
0.0442751
0.0453656
0.0465586
0.0478672
0.0493087
0.0509046
0.0526827
0.0546789
0.0569399
0.0595275
0.0625241
0.0660426
0.0702404
0.0753421
0.0816861
0.089753
0.100547
0.115723
0.0373868
0.0375991
0.0378743
0.038221
0.0386406
0.0391307
0.0396895
0.0403168
0.0410134
0.0417812
0.0426232
0.0435441
0.0445499
0.0456487
0.0468511
0.0481704
0.0496236
0.0512326
0.0530251
0.0550373
0.0573159
0.0599229
0.0629412
0.0664838
0.0707088
0.0758411
0.082221
0.0903316
0.101153
0.116451
0.037522
0.0377261
0.0379963
0.0383403
0.0387583
0.0392475
0.0398063
0.0404343
0.0411321
0.0419018
0.0427463
0.0436701
0.0446794
0.0457823
0.0469892
0.0483136
0.0497725
0.0513877
0.0531872
0.055207
0.057494
0.0601103
0.0631389
0.066693
0.0709309
0.0760778
0.0824747
0.0906061
0.101435
0.116804
0.0375219
0.0377259
0.0379961
0.0383402
0.0387582
0.0392474
0.0398062
0.0404342
0.041132
0.0419017
0.0427462
0.04367
0.0446793
0.0457822
0.0469891
0.0483135
0.0497724
0.0513876
0.0531871
0.0552069
0.0574939
0.0601102
0.0631388
0.066693
0.0709309
0.0760777
0.0824747
0.090606
0.101435
0.116803
0.0373864
0.0375987
0.0378739
0.0382206
0.0386403
0.0391304
0.0396892
0.0403165
0.0410131
0.0417809
0.0426229
0.0435438
0.0445496
0.0456485
0.0468508
0.0481701
0.0496234
0.0512323
0.0530249
0.055037
0.0573157
0.0599227
0.0629409
0.0664836
0.0707085
0.0758409
0.0822207
0.0903313
0.101153
0.116451
0.037098
0.0373275
0.0376132
0.0379658
0.0383891
0.0388811
0.0394402
0.0400663
0.0407604
0.0415243
0.0423614
0.0432761
0.0442747
0.0453652
0.0465581
0.0478668
0.0493082
0.0509041
0.0526823
0.0546785
0.0569395
0.059527
0.0625237
0.0660422
0.07024
0.0753417
0.0816857
0.0897526
0.100546
0.115723
0.0366418
0.0368976
0.0371999
0.037562
0.0379914
0.0384868
0.0390467
0.0396712
0.0403615
0.0411196
0.041949
0.0428542
0.0438415
0.044919
0.0460972
0.0473892
0.0488122
0.0503875
0.0521429
0.054114
0.0563472
0.0589039
0.0618663
0.0653465
0.0695012
0.074554
0.0808409
0.088838
0.099572
0.114581
0.0360059
0.036297
0.0366229
0.036999
0.0374373
0.0379379
0.0384994
0.0391221
0.0398075
0.040558
0.0413769
0.0422692
0.043241
0.0443005
0.0454581
0.0467271
0.0481241
0.0496708
0.0513943
0.0533301
0.0555242
0.0580375
0.0609515
0.0643776
0.0684712
0.0734544
0.0796599
0.0875582
0.0981925
0.112981
0.0351831
0.0355181
0.0358749
0.0362701
0.036721
0.0372292
0.0377936
0.0384147
0.0390945
0.0398356
0.0406416
0.0415175
0.0424695
0.043506
0.0446371
0.0458761
0.0472397
0.0487489
0.0504308
0.0523203
0.0544631
0.0569192
0.0597693
0.0631236
0.0671361
0.0720266
0.0781235
0.0858905
0.0963772
0.110884
0.0341714
0.0345582
0.0349535
0.0353737
0.0358417
0.0363606
0.0369298
0.0375503
0.0382242
0.0389547
0.0397456
0.040602
0.0415303
0.0425387
0.0436375
0.0448397
0.0461618
0.0476246
0.0492547
0.0510865
0.0531648
0.055549
0.0583184
0.0615819
0.0654913
0.0702636
0.0762218
0.0838211
0.0941039
0.108256
0.0329737
0.0334193
0.0338612
0.0343132
0.0348036
0.0353373
0.0359142
0.0365358
0.0372046
0.037924
0.0386983
0.0395326
0.0404336
0.0414094
0.0424703
0.0436291
0.044902
0.0463093
0.0478773
0.0496395
0.05164
0.0539367
0.0566078
0.0597601
0.0635428
0.0681692
0.073956
0.0813478
0.0913624
0.105076
0.031597
0.0321083
0.032605
0.0330965
0.0336156
0.0341695
0.0347582
0.0353837
0.036049
0.0367579
0.037515
0.0383257
0.0391967
0.0401361
0.0411542
0.0422635
0.0434799
0.0448234
0.0463193
0.0480004
0.0499096
0.0521035
0.0546582
0.0576781
0.0613093
0.0657605
0.0713406
0.0784822
0.0881577
0.10134
0.0300497
0.030634
0.0311949
0.0317347
0.0322905
0.0328711
0.0334772
0.0341109
0.0347758
0.0354762
0.0362169
0.0370036
0.0378431
0.0387435
0.039715
0.0407699
0.0419237
0.0431957
0.0446105
0.0461997
0.0480047
0.0500804
0.0525004
0.0553662
0.0588198
0.0630643
0.0683997
0.0752451
0.0845066
0.0970609
0.0283366
0.0290027
0.0296393
0.0302384
0.0308412
0.0314577
0.0320886
0.0327366
0.0334059
0.0341013
0.0348279
0.0355917
0.0363996
0.0372597
0.038182
0.0391785
0.040264
0.0414574
0.0427819
0.044268
0.0459551
0.0478957
0.0501607
0.0528476
0.0560934
0.0600948
0.0651423
0.0716417
0.0804176
0.0922645
0.0264603
0.027219
0.027945
0.0286149
0.0292775
0.0299425
0.0306091
0.03128
0.0319603
0.0326553
0.0333708
0.0341129
0.0348887
0.0357064
0.0365755
0.0375077
0.0385173
0.0396221
0.0408445
0.0422129
0.0437649
0.0455502
0.0476359
0.0501151
0.0531191
0.0568371
0.0615493
0.0676508
0.0758824
0.0869809
0.0244496
0.0253172
0.0261582
0.0269076
0.0276339
0.0283534
0.0290632
0.0297642
0.0304613
0.0311601
0.031867
0.0325886
0.033332
0.0341056
0.0349189
0.0357833
0.0367128
0.0377248
0.0388405
0.0400869
0.0414992
0.0431243
0.0450251
0.0472889
0.0500394
0.0534557
0.0578037
0.0634614
0.071079
0.0813469
0.0221433
0.0231177
0.0242416
0.0251759
0.0260078
0.0267993
0.0275619
0.0282999
0.0290207
0.0297323
0.0304426
0.0311597
0.031892
0.0326483
0.0334383
0.0342736
0.0351682
0.0361391
0.0372063
0.0383946
0.0397362
0.0412745
0.0430659
0.0451885
0.0477518
0.0509182
0.054922
0.0600846
0.0668925
0.0759328
0.0178206
0.0187572
0.0205056
0.0218872
0.0230404
0.024112
0.0251358
0.0261209
0.0270771
0.0280139
0.0289395
0.0298616
0.0307885
0.0317284
0.0326899
0.0336832
0.0347213
0.0358207
0.0370001
0.0382807
0.0396903
0.0412684
0.0430625
0.0451386
0.0475855
0.0505381
0.0541815
0.0587283
0.0644052
0.0717322
0.0655009
0.0636081
0.0596217
0.0547504
0.0496389
0.0443832
0.0389801
0.033465
0.0278955
0.0223322
0.0168322
0.0114485
0.00622883
0.00121445
-0.00356041
-0.00806849
-0.0122891
-0.0162076
-0.0198159
-0.0231115
-0.02609
-0.0287413
-0.0310895
-0.033143
-0.0349129
-0.0364249
-0.037724
-0.0387995
-0.0393558
-0.0388379
0.0547069
0.0544992
0.0520658
0.0484236
0.0444744
0.0403907
0.0361411
0.0317309
0.0272008
0.0226017
0.0179866
0.0134092
0.00892259
0.00457691
0.000417226
-0.00351791
-0.0071975
-0.0105984
-0.0137049
-0.0165075
-0.0190085
-0.0212265
-0.0231572
-0.0248151
-0.0262213
-0.027414
-0.0284461
-0.0292432
-0.0293125
-0.0281435
0.0485234
0.0490624
0.0473733
0.0444309
0.0411865
0.0378231
0.0342971
0.0305999
0.0267606
0.0228203
0.0188249
0.0148238
0.0108685
0.00701031
0.00329745
-0.000227299
-0.00352832
-0.00657836
-0.00935896
-0.0118604
-0.0140817
-0.0160274
-0.0177093
-0.0191418
-0.0203453
-0.0213601
-0.0222435
-0.0229056
-0.0227776
-0.0212863
0.0443449
0.0452565
0.0440208
0.0415705
0.0388246
0.0359569
0.0329225
0.0297101
0.0263444
0.0228618
0.0193039
0.015717
0.0121509
0.00865645
0.00528258
0.00207377
-0.000932279
-0.00370615
-0.00622758
-0.00848554
-0.0104777
-0.012209
-0.0136905
-0.0149366
-0.0159669
-0.0168213
-0.0175573
-0.0180844
-0.017822
-0.0161748
0.0413006
0.0423734
0.0414158
0.0393206
0.0369473
0.034452
0.0317892
0.0289472
0.0259476
0.0228231
0.0196116
0.0163568
0.0131065
0.00991045
0.00681727
0.00387178
0.00111242
-0.0014305
-0.00373588
-0.00579203
-0.0075961
-0.00915296
-0.0104732
-0.0115708
-0.0124648
-0.0131931
-0.0138121
-0.0142374
-0.0138992
-0.0121814
0.0390082
0.0401313
0.039351
0.037521
0.0354337
0.0332251
0.0308504
0.0282986
0.0255889
0.022751
0.0198198
0.0168367
0.0138472
0.0108998
0.00804215
0.00531863
0.00276766
0.000419725
-0.00170382
-0.00359096
-0.00523855
-0.00665114
-0.00783902
-0.0088158
-0.00959947
-0.0102257
-0.01075
-0.0110968
-0.0107161
-0.0089683
0.0372133
0.0383364
0.0376704
0.0360445
0.0341846
0.0322048
0.0300616
0.0277448
0.0252719
0.0226699
0.0199716
0.0172158
0.0144464
0.0117101
0.00905348
0.00652019
0.00414819
0.00196772
8.65909e-08
-0.00174264
-0.00325717
-0.00454782
-0.00562464
-0.00650089
-0.00719373
-0.00773662
-0.00818424
-0.0084712
-0.00806951
-0.00631287
0.0357882
0.0368653
0.0362745
0.0348078
0.0331335
0.0313421
0.0293901
0.0272687
0.0249942
0.0225914
0.0200907
0.0175291
0.0149488
0.0123948
0.00991257
0.0075447
0.00532849
0.00329374
0.00146151
-0.000156283
-0.00155631
-0.00274276
-0.00372549
-0.00451754
-0.0051353
-0.00561021
-0.00599607
-0.0062378
-0.00582948
-0.00407477
0.0346204
0.0356244
0.0350915
0.033756
0.0322344
0.0306013
0.0288113
0.0268564
0.0247518
0.0225203
0.0201907
0.0177981
0.0153829
0.0129888
0.0106598
0.0084376
0.00635862
0.00445209
0.00273867
0.00123005
-7.05072e-05
-0.00116713
-0.00206953
-0.00279057
-0.003346
-0.00376533
-0.0041015
-0.00430939
-0.00390418
-0.00215668
0.033642
0.0345533
0.0340613
0.0328485
0.031454
0.0299555
0.0283058
0.0264956
0.0245394
0.0224583
0.0202794
0.0180361
0.0157673
0.0135153
0.0113228
0.0092303
0.0072735
0.00548092
0.00387274
0.00246037
0.00124693
0.000228318
-0.000605066
-0.00126593
-0.00176947
-0.00214339
-0.0024397
-0.00262272
-0.00222754
-0.000489749
0.0328067
0.0336071
0.0331434
0.0320478
0.0307685
0.0293841
0.0278575
0.026176
0.0243518
0.0224048
0.0203608
0.0182515
0.0161144
0.0139903
0.0119208
0.00994519
0.00809831
0.00640797
0.00489384
0.003567
0.00243041
0.00147999
0.000706216
9.65114e-05
-0.000363793
-0.000700728
-0.000965269
-0.00113062
-0.000750603
0.000976217
0.0320735
0.0327641
0.0323175
0.0313192
0.0301562
0.0288708
0.0274537
0.0258884
0.0241837
0.0223584
0.0204369
0.0184497
0.0164327
0.0144253
0.0124678
0.0105987
0.0088517
0.00725395
0.0058246
0.00457437
0.00350607
0.0026156
0.00189352
0.00132741
0.000903063
0.000596047
0.000356495
0.000202943
0.000563789
0.00227856
0.0314165
0.0319911
0.0315622
0.0306507
0.0295947
0.0284024
0.0270831
0.0256245
0.0240301
0.022317
0.0205086
0.018634
0.0167279
0.0148283
0.0129743
0.0112032
0.00954789
0.00803481
0.00668254
0.00550148
0.00449426
0.00365677
0.0029797
0.00245076
0.00205616
0.00177302
0.00155267
0.001406
0.00174433
0.00344543
0.0308174
0.0312683
0.0308592
0.0300295
0.0290665
0.0279703
0.0267368
0.025377
0.0238862
0.0222781
0.0205755
0.0188065
0.0170042
0.0152054
0.013448
0.0117682
0.010198
0.00876307
0.00748154
0.00636343
0.00541122
0.00462081
0.00398301
0.00348569
0.00311549
0.00285094
0.00264472
0.00250069
0.00281352
0.00449815
0.0302529
0.030586
0.0301987
0.0294402
0.0285603
0.0275633
0.0264103
0.0251409
0.0237479
0.0222395
0.0206373
0.0189683
0.0172644
0.0155611
0.013895
0.0123012
0.0108108
0.00944889
0.0082329
0.00717257
0.00627025
0.00552186
0.00491837
0.00444782
0.00409724
0.00384655
0.00364987
0.00350468
0.00378915
0.00545278
0.0297055
0.029931
0.029567
0.0288765
0.0280731
0.0271653
0.0260985
0.0249108
0.023611
0.0221986
0.0206929
0.01912
0.0175106
0.0158989
0.0143201
0.0128083
0.0113938
0.0101007
0.00894601
0.0079392
0.00708244
0.00637172
0.00579817
0.00535004
0.00501475
0.0047735
0.00458205
0.00443215
0.00468538
0.00632115
0.0291649
0.0292907
0.0289526
0.0283299
0.0275959
0.0267664
0.0257949
0.024683
0.0234719
0.022153
0.0207411
0.0192617
0.0177443
0.0162214
0.0147273
0.0132947
0.011953
0.0107256
0.00962893
0.00867214
0.00785729
0.00718043
0.00663289
0.00620317
0.00587906
0.005643
0.00545255
0.00529442
0.00551337
0.00711158
0.028624
0.0286537
0.0283431
0.0277876
0.0271225
0.026366
0.0254884
0.0244543
0.0233273
0.0221002
0.0207807
0.0193933
0.0179663
0.0165309
0.0151198
0.0137647
0.0124938
0.0113299
0.0102887
0.00937913
0.00860309
0.0079567
0.00743153
0.00701637
0.00669939
0.00646424
0.00627042
0.00610046
0.00628181
0.00782936
0.0280755
0.0280105
0.0277302
0.0272417
0.0266451
0.0259601
0.0251698
0.0242221
0.0231736
0.0220372
0.0208101
0.0195143
0.0181773
0.0168289
0.0155004
0.0142221
0.0130211
0.0119192
0.0109318
0.0100671
0.00932723
0.0087082
0.0082019
0.00779744
0.00748343
0.00724466
0.00704282
0.0068571
0.00699715
0.00847713
0.0275097
0.0273547
0.0271073
0.0266862
0.0261594
0.0255419
0.0248312
0.0239823
0.0230085
0.0219615
0.0208276
0.019624
0.0183777
0.0171171
0.0158716
0.0146704
0.0135392
0.0124988
0.011564
0.0107426
0.0100365
0.00944184
0.00895086
0.00855307
0.00823752
0.00799017
0.00777513
0.00756923
0.00766377
0.00905512
0.0269168
0.0266788
0.0264673
0.0261131
0.0256561
0.0251082
0.0244737
0.0237254
0.0228305
0.021871
0.0208313
0.0197216
0.0185677
0.0173964
0.0162357
0.0151128
0.0140523
0.0130737
0.012191
0.0114116
0.0107371
0.0101639
0.00968448
0.0092889
0.00896677
0.00870521
0.00847104
0.00823988
0.00828402
0.00956149
0.0262866
0.0259756
0.0258037
0.0255169
0.0251299
0.0246535
0.0240953
0.0234438
0.0226376
0.0217626
0.020819
0.0198059
0.0187469
0.0176679
0.0165946
0.0155526
0.0145646
0.0136489
0.0128185
0.0120801
0.0114352
0.0108802
0.0104081
0.0100097
0.00967511
0.00939282
0.0091326
0.00887021
0.00885826
0.00999258
0.0256066
0.0252372
0.0251095
0.0248916
0.0245764
0.0241746
0.0236925
0.0231302
0.0224269
0.0216328
0.0207881
0.0198753
0.0189151
0.0179323
0.0169505
0.0159929
0.0150804
0.0142297
0.0134522
0.0127542
0.0121366
0.0115962
0.0111267
0.0107193
0.0103654
0.0100546
0.00976022
0.00945953
0.00938468
0.0103433
0.0248597
0.0244537
0.0243764
0.0242302
0.0239894
0.0236652
0.0232605
0.0227828
0.0221927
0.0214816
0.0207367
0.0199285
0.0190719
0.0181903
0.0173052
0.016437
0.0156042
0.0148211
0.014098
0.0134397
0.0128469
0.0123167
0.0118437
0.0114202
0.0110386
0.0106902
0.0103521
0.0100049
0.00985903
0.0106076
0.024024
0.0236114
0.0235922
0.0235229
0.0233611
0.0231178
0.0227945
0.0224029
0.0219257
0.0213077
0.0206626
0.0199638
0.0192165
0.0184426
0.0176607
0.016888
0.0161398
0.015428
0.0147605
0.014141
0.0135697
0.0130442
0.0125605
0.0121121
0.0116929
0.0112962
0.0109034
0.0105003
0.0102744
0.0107795
0.0230787
0.022705
0.0227507
0.0227618
0.022686
0.0225293
0.0222922
0.02199
0.0216203
0.0211066
0.0205615
0.0199778
0.0193468
0.0186883
0.0180178
0.0173486
0.0166919
0.0160562
0.0154465
0.0148646
0.0143099
0.0137828
0.01328
0.0127963
0.0123274
0.0118698
0.0114098
0.010941
0.0106246
0.0108557
0.0219895
0.021764
0.0218923
0.0219743
0.021982
0.0219128
0.0217617
0.0215453
0.021273
0.0208739
0.0204246
0.0199607
0.0194544
0.0189227
0.0183773
0.0178261
0.0172749
0.0167265
0.0161819
0.0156394
0.0150972
0.0145626
0.0140309
0.0134979
0.0129632
0.0124275
0.0118839
0.0113352
0.0109101
0.0108362
0.020547
0.0207305
0.0210454
0.0211987
0.0212733
0.0212797
0.0212061
0.0210628
0.020872
0.020596
0.0202424
0.0199023
0.0195337
0.019148
0.0187512
0.0183434
0.0179213
0.01748
0.0170136
0.0165176
0.0159925
0.0154348
0.0148561
0.0142524
0.013628
0.0129893
0.0123378
0.0116845
0.0111151
0.0107056
0.0180641
0.0188617
0.019663
0.0200641
0.0202925
0.0204325
0.0204863
0.020463
0.0203916
0.0202685
0.0200539
0.0198612
0.0196495
0.019422
0.0191775
0.018907
0.0185985
0.0182409
0.0178238
0.0173458
0.0168394
0.0161837
0.0155199
0.0148173
0.0140825
0.0133283
0.0125631
0.0118012
0.011081
0.0103851
0.0141473
0.0147421
0.0162144
0.0173023
0.0180904
0.018716
0.0192053
0.0195695
0.0198365
0.0200166
0.0200733
0.0200805
0.0200102
0.0198589
0.0196256
0.0193067
0.0188998
0.0184083
0.0178351
0.0171749
0.016408
0.0157066
0.0149557
0.0141766
0.0133955
0.0126269
0.0118805
0.0111706
0.0105066
0.00984265
-0.0405162
-0.032586
-0.0265965
-0.0217325
-0.0177178
-0.0143758
-0.0115567
-0.00915148
-0.00707684
-0.00526961
-0.00368111
-0.00227336
-0.00101629
0.000114167
0.00113755
0.00206983
0.00292417
0.00371134
0.00444007
0.00511714
0.00574741
0.00633373
0.00687681
0.00737511
0.00782445
0.00821643
0.00854087
0.00879437
0.00897755
0.00902424
-0.0406707
-0.0326103
-0.0263241