/*--------------------------------*- C++ -*----------------------------------*\
  =========                 |
  \\      /  F ield         | OpenFOAM: The Open Source CFD Toolbox
   \\    /   O peration     | Website:  https://openfoam.org
    \\  /    A nd           | Version:  12
     \\/     M anipulation  |
\*---------------------------------------------------------------------------*/
FoamFile
{
    format      ascii;
    class       surfaceScalarField;
    location    "120";
    object      phi;
}
// * * * * * * * * * * * * * * * * * * * * * * * * * * * * * * * * * * * * * //

dimensions      [0 3 -1 0 0 0 0];

internalField   nonuniform List<scalar> 
13275
(
0.369022
-0.00463073
0.369479
-0.0115018
0.369791
-0.0154313
0.369904
-0.0173915
-0.0180646
0.369842
0.351098
-0.00490369
0.35146
-0.0118631
0.351679
-0.015651
0.351639
-0.0173509
-0.0176645
0.351239
0.334002
-0.00502646
0.334076
-0.0119381
0.333966
-0.0155404
0.33363
-0.0170147
-0.0171234
0.333089
0.317721
-0.00499679
0.317509
-0.0117263
0.3171
-0.0151309
0.316528
-0.0164424
-0.0164465
0.315851
0.302245
-0.00483967
0.301788
-0.01127
0.301121
-0.0144639
0.30033
-0.0156512
-0.0156071
0.299491
0.287534
-0.00457906
0.286871
-0.0106068
0.285974
-0.0135677
0.284971
-0.0146477
-0.0145854
0.283949
0.273546
-0.00423229
0.272704
-0.0097655
0.271602
-0.0124656
0.270396
-0.0134415
-0.0133769
0.269188
0.260243
-0.00381313
0.259249
-0.00877185
0.257966
-0.0111822
0.256575
-0.0120505
-0.0119916
0.25519
0.247593
-0.00333469
0.246474
-0.00765297
0.245039
-0.00974732
0.24349
-0.0105017
-0.0104521
0.241951
0.235564
-0.00281074
0.23435
-0.00643849
0.232798
-0.00819607
0.231127
-0.00883009
-0.00879077
0.229465
0.224129
-0.00225566
0.22285
-0.0051598
0.221221
-0.00656674
0.219466
-0.00707531
-0.00704586
0.217721
0.213259
-0.0016839
0.211947
-0.00384835
0.210279
-0.0048982
0.208482
-0.00527831
-0.00525766
0.206693
0.202927
-0.00110934
0.201612
-0.00253362
0.199941
-0.00322722
0.198141
-0.0034781
-0.00346498
0.196348
0.193107
-0.000544562
0.191815
-0.00124211
0.190174
-0.00158608
0.188405
-0.00170896
-0.00170242
0.186642
0.183771
4.67257e-07
0.182528
1.00891e-06
0.180941
1.2303e-06
0.17923
1.2643e-06
1.20471e-06
0.177527
0.183771
0.000545499
0.182528
0.00124413
0.180941
0.00158853
0.17923
0.00171149
0.00170482
0.177527
0.193107
0.00111028
0.191815
0.00253564
0.190174
0.00322967
0.188405
0.00348062
0.00346738
0.186642
0.202927
0.00168483
0.201612
0.00385036
0.199941
0.00490063
0.198141
0.00528082
0.00526005
0.196348
0.213259
0.00225658
0.211947
0.0051618
0.210279
0.00656916
0.208482
0.00707779
0.00704823
0.206694
0.224129
0.00281165
0.22285
0.00644047
0.221221
0.00819847
0.219466
0.00883256
0.00879312
0.217721
0.235564
0.0033356
0.23435
0.00765493
0.232798
0.00974969
0.231127
0.0105041
0.0104544
0.229465
0.247593
0.00381402
0.246474
0.00877378
0.245039
0.0111845
0.24349
0.0120529
0.0119939
0.241951
0.260243
0.00423317
0.259249
0.00976739
0.257966
0.0124679
0.256575
0.0134439
0.0133791
0.25519
0.273546
0.00457992
0.272705
0.0106087
0.271602
0.01357
0.270396
0.01465
0.0145876
0.269188
0.287534
0.00484051
0.286871
0.0112719
0.285975
0.0144661
0.284971
0.0156535
0.0156092
0.283949
0.302245
0.00499761
0.301789
0.0117281
0.301122
0.0151331
0.30033
0.0164445
0.0164486
0.299491
0.317721
0.00502724
0.317509
0.0119398
0.3171
0.0155425
0.316528
0.0170168
0.0171255
0.315851
0.334002
0.00490443
0.334077
0.0118648
0.333966
0.015653
0.33363
0.0173529
0.0176664
0.333089
0.351098
0.00463142
0.35146
0.0115033
0.35168
0.0154332
0.351639
0.0173934
0.0180664
0.351239
0.369022
0.36948
0.369791
0.369905
0.369843
0.197414
-0.0506394
-0.197452
0.197001
-0.0578978
0.195974
-0.064183
0.194315
-0.0697106
0.19208
-0.0744445
0.189339
-0.0783186
0.186165
-0.0812417
0.182635
-0.0830902
0.178837
-0.0837199
0.174886
-0.0830835
0.170866
-0.0809793
0.166935
-0.077274
0.163238
-0.0720503
0.15992
-0.0653991
0.157112
-0.0574989
0.154919
-0.0486056
0.153414
-0.0390317
0.15263
-0.0291157
0.152561
-0.0191951
0.153168
-0.00958228
0.154346
-0.00048876
0.15609
0.00785167
0.158274
0.0153804
0.160806
0.0219804
0.163597
0.027632
0.166567
0.0323529
0.169643
0.0361878
0.172764
0.0391968
0.175869
0.0414487
0.0430095
0.178865
0.194785
-0.0507604
-0.194664
0.19412
-0.0572331
0.192763
-0.0628261
0.190814
-0.0677611
0.18835
-0.0719804
0.185444
-0.0754127
0.182163
-0.0779613
0.178579
-0.0795054
0.174776
-0.0799169
0.170851
-0.0791592
0.166886
-0.0770143
0.163029
-0.0734166
0.159412
-0.0684333
0.156166
-0.0621534
0.153411
-0.0547435
0.151243
-0.0464376
0.149728
-0.0375174
0.1489
-0.0282877
0.148755
-0.0190497
0.149249
-0.0100762
0.150351
-0.00159088
0.151959
0.00624397
0.154018
0.013321
0.156435
0.0195632
0.159125
0.0249423
0.162009
0.0294685
0.16502
0.0331772
0.168099
0.0361182
0.171187
0.0383599
0.0400348
0.174162
0.191468
-0.0505021
-0.191727
0.1905
-0.0562643
0.188928
-0.0612545
0.186833
-0.0656658
0.184281
-0.0694282
0.181331
-0.0724632
0.178042
-0.0746723
0.174479
-0.0759419
0.170727
-0.0761651
0.166864
-0.0752967
0.162977
-0.0731266
0.159202
-0.0696414
0.155661
-0.0648928
0.152476
-0.0589687
0.149758
-0.0520254
0.147598
-0.0442771
0.146059
-0.0359786
0.145175
-0.0274035
0.144946
-0.0188205
0.145343
-0.0104734
0.146317
-0.00256476
0.147802
0.00475897
0.149729
0.0113936
0.152019
0.0172736
0.15459
0.0223714
0.157366
0.026692
0.16028
0.0302627
0.163275
0.0331235
0.166297
0.0353377
0.037107
0.169225
0.188041
-0.0499012
-0.188642
0.186814
-0.0550373
0.185059
-0.0594996
0.182836
-0.0634433
0.180203
-0.0667948
0.177211
-0.0694716
0.173915
-0.0713763
0.170374
-0.0724008
0.166675
-0.0724663
0.162877
-0.0714982
0.159072
-0.0693215
0.155382
-0.0659513
0.151918
-0.0614292
0.148792
-0.0558423
0.146104
-0.0493377
0.143939
-0.0421124
0.142359
-0.0343982
0.141396
-0.026441
0.141057
-0.0184816
0.141321
-0.0107371
0.142144
-0.00338807
0.143473
0.00343033
0.145242
0.00962452
0.147379
0.0151362
0.149811
0.01994
0.152465
0.0240384
0.155274
0.0274528
0.158184
0.0302144
0.161142
0.0323789
0.0342146
0.164035
0.184531
-0.0490073
-0.185425
0.183078
-0.0535842
0.181154
-0.0575756
0.178812
-0.0611012
0.176102
-0.0640842
0.17307
-0.0664402
0.169768
-0.0680742
0.166253
-0.0688855
0.162604
-0.0688178
0.158869
-0.0677626
0.155144
-0.0655968
0.151536
-0.0623429
0.148145
-0.0580385
0.145073
-0.0527699
0.142411
-0.0466759
0.140237
-0.0399391
0.13861
-0.0327709
0.137563
-0.025394
0.137106
-0.0180241
0.137224
-0.0108551
0.137883
-0.00404779
0.139038
0.00227604
0.140629
0.0080327
0.142595
0.013171
0.144866
0.0176687
0.147377
0.0215274
0.150065
0.0247648
0.152874
0.0274052
0.155758
0.0294955
0.0313614
0.158611
0.180909
-0.0478491
-0.182067
0.17925
-0.0519256
0.177174
-0.0554991
0.174725
-0.0586527
0.171948
-0.0613067
0.168884
-0.0633767
0.165582
-0.0647718
0.162096
-0.0653998
0.158495
-0.0652163
0.154821
-0.0640893
0.151172
-0.0619479
0.14764
-0.0588108
0.144317
-0.0547157
0.141295
-0.0497474
0.138657
-0.044038
0.136475
-0.0377572
0.134803
-0.031099
0.133675
-0.0242656
0.133102
-0.0174513
0.133076
-0.0108292
0.133571
-0.00454246
0.134546
0.00130072
0.135953
0.0066262
0.137734
0.0113898
0.13983
0.0155727
0.14218
0.0191771
0.144726
0.0222186
0.147415
0.0247163
0.150202
0.0267093
0.028566
0.152997
0.177152
-0.0464511
-0.17855
0.17531
-0.0500828
0.173099
-0.0532885
0.170559
-0.0561125
0.167726
-0.0584738
0.164639
-0.0602895
0.161341
-0.061474
0.157887
-0.0619462
0.154329
-0.0616582
0.150717
-0.0604769
0.147139
-0.05837
0.143678
-0.0553498
0.140418
-0.051456
0.137443
-0.0467721
0.134829
-0.0414238
0.132641
-0.0355696
0.130931
-0.0293883
0.129729
-0.0230641
0.12905
-0.0167724
0.12889
-0.0106683
0.129226
-0.00487879
0.130026
0.000500549
0.131247
0.00540487
0.132841
0.00979653
0.134753
0.0136606
0.136929
0.0170006
0.139317
0.0198309
0.141866
0.0221674
0.144532
0.024043
0.0258527
0.147245
0.173253
-0.0448397
-0.174864
0.171249
-0.048079
0.168923
-0.0509621
0.166305
-0.0534945
0.163427
-0.0555957
0.160323
-0.0571859
0.157033
-0.0581841
0.153612
-0.0585246
0.150095
-0.0581417
0.146542
-0.0569237
0.14303
-0.0548586
0.139636
-0.0519554
0.136436
-0.0482559
0.133506
-0.0438425
0.130917
-0.0388348
0.128729
-0.0333813
0.126988
-0.0276471
0.125724
-0.0218005
0.124952
-0.0160003
0.124669
-0.0103854
0.124859
-0.00506865
0.125493
-0.000133982
0.126536
0.00436248
0.127943
0.00838924
0.129668
0.0119352
0.131664
0.0150054
0.133881
0.0176138
0.136273
0.0197748
0.1388
0.0215168
0.0232457
0.141407
0.169205
-0.0430423
-0.171003
0.167063
-0.0459372
0.164638
-0.048537
0.161955
-0.0508114
0.159041
-0.0526815
0.155927
-0.0540717
0.152649
-0.0549059
0.149257
-0.055133
0.145782
-0.0546664
0.142285
-0.0534271
0.138836
-0.0514097
0.135505
-0.0486238
0.132362
-0.045113
0.129478
-0.0409582
0.126916
-0.0362736
0.124733
-0.031198
0.122971
-0.0258845
0.121657
-0.020487
0.120806
-0.0151492
0.120416
-0.00999585
0.120475
-0.00512701
0.120957
-0.000616259
0.121831
0.00348826
0.12306
0.00716067
0.124602
0.0103934
0.126414
0.0131932
0.128453
0.0155742
0.130678
0.0175499
0.133049
0.0191461
0.0207667
0.135528
0.165005
-0.0410858
-0.166962
0.162747
-0.0436788
0.160239
-0.0460292
0.157502
-0.0480747
0.15456
-0.0497391
0.15144
-0.0509518
0.148178
-0.0516441
0.144815
-0.0517696
0.141381
-0.0512323
0.137938
-0.0499846
0.134549
-0.0480206
0.131278
-0.0453528
0.128191
-0.0420263
0.125354
-0.0381204
0.122824
-0.0337438
0.120653
-0.0290267
0.118879
-0.0241105
0.117528
-0.0191362
0.116613
-0.014234
0.116133
-0.00951587
0.116076
-0.00507043
0.116422
-0.000962008
0.117142
0.00276836
0.118203
0.00609983
0.119568
0.00902803
0.1212
0.0115612
0.12306
0.0137138
0.125111
0.0154992
0.127315
0.0169418
0.018433
0.129649
0.160649
-0.0389958
-0.162739
0.158294
-0.041324
0.155718
-0.0434536
0.152939
-0.0452952
0.149976
-0.0467761
0.146855
-0.0478311
0.143612
-0.0484011
0.140276
-0.0484334
0.136884
-0.0478403
0.133494
-0.0465946
0.130163
-0.0446897
0.126952
-0.0421412
0.123921
-0.038996
0.121132
-0.0353311
0.118638
-0.03125
0.116486
-0.0268745
0.11471
-0.0223351
0.113335
-0.0177609
0.112371
-0.0132698
0.111817
-0.00896194
0.111663
-0.00491606
0.111889
-0.00118812
0.11247
0.0021871
0.113377
0.00519312
0.114576
0.00782832
0.116035
0.0101023
0.117719
0.0120297
0.119594
0.0136241
0.121627
0.0149095
0.0162572
0.123803
0.156133
-0.0367958
-0.158332
0.153699
-0.0388909
0.15107
-0.0408238
0.148257
-0.0424831
0.145281
-0.0438001
0.142164
-0.044714
0.138941
-0.0451778
0.135634
-0.0451262
0.132285
-0.0444917
0.128947
-0.0432568
0.125674
-0.0414164
0.122522
-0.0389894
0.119549
-0.0360234
0.116812
-0.0325933
0.114359
-0.0287972
0.112233
-0.0247487
0.110466
-0.0205682
0.109079
-0.0163734
0.10808
-0.0122707
0.107468
-0.00835008
0.107233
-0.00468086
0.107356
-0.00131177
0.107815
0.00172787
0.108583
0.00442535
0.10963
0.0067813
0.110926
0.00880636
0.112441
0.0105153
0.114143
0.0119218
0.116002
0.0130503
0.0142466
0.118013
0.151452
-0.0345077
-0.15374
0.148957
-0.0363961
0.146285
-0.038152
0.14345
-0.0396474
0.140467
-0.0408173
0.13736
-0.041607
0.134158
-0.0419755
0.130882
-0.0418504
0.127578
-0.0411875
0.124293
-0.0399718
0.121078
-0.0382015
0.117987
-0.0358986
0.115075
-0.0331109
0.112392
-0.0299109
0.109986
-0.026391
0.107894
-0.022657
0.106146
-0.0188195
0.104758
-0.0149853
0.103738
-0.0112507
0.103083
-0.00769555
0.102783
-0.00438121
0.102821
-0.00134985
0.103175
0.00137394
0.10382
0.00378058
0.104729
0.00587252
0.105874
0.00766107
0.107229
0.00916091
0.108764
0.0103861
0.110454
0.011361
0.0124036
0.112297
0.146602
-0.0321511
-0.148958
0.14406
-0.033854
0.141358
-0.0354501
0.138508
-0.0367973
0.135525
-0.0378348
0.132434
-0.0385155
0.129254
-0.0387961
0.126014
-0.0386101
0.122756
-0.0379299
0.119526
-0.0367416
0.116372
-0.0350473
0.113345
-0.0328714
0.110496
-0.0302619
0.107873
-0.0272883
0.105519
-0.0240374
0.103469
-0.020607
0.101748
-0.0170983
0.100371
-0.013608
0.0993427
-0.0102224
0.0986598
-0.00701267
0.0983111
-0.00403255
0.0982798
-0.00131852
0.0985448
0.00110892
0.0990826
0.00324278
0.0998683
0.00508686
0.100877
0.00665281
0.102082
0.00795507
0.103461
0.0090077
0.104986
0.00983534
0.0107264
0.106664
0.141573
-0.0297435
-0.143981
0.138998
-0.0312784
0.136277
-0.0327295
0.133422
-0.0339422
0.130447
-0.0348595
0.127375
-0.0354436
0.124222
-0.0356438
0.121022
-0.0354098
0.117814
-0.0347221
0.114642
-0.0335691
0.111551
-0.0319568
0.108592
-0.0299116
0.10581
-0.0274808
0.103253
-0.0247308
0.100958
-0.0217427
0.0989575
-0.0186063
0.0972729
-0.0154137
0.0959168
-0.0122519
0.0948923
-0.00919793
0.0941943
-0.00631469
0.093811
-0.00364928
0.0937255
-0.001233
0.0939173
0.00091715
0.0943638
0.00279628
0.0950415
0.00440911
0.095927
0.00576732
0.0969972
0.0068849
0.0982291
0.00777574
0.0996
0.00846443
0.00920993
0.101117
0.136356
-0.0273001
-0.1388
0.133761
-0.028683
0.131033
-0.0300012
0.128181
-0.0310908
0.125222
-0.0319
0.122174
-0.0323955
0.119054
-0.0325245
0.115899
-0.0322546
0.112745
-0.0315684
0.109635
-0.0304586
0.106612
-0.0289344
0.103725
-0.0270236
0.101016
-0.0247727
0.0985298
-0.0222443
0.0963006
-0.0195135
0.0943567
-0.0166625
0.0927173
-0.0137743
0.0913922
-0.0109268
0.0903825
-0.00818819
0.0896816
-0.00561384
0.089277
-0.00324464
0.0891513
-0.00110738
0.0892845
0.000783949
0.0896547
0.00242611
0.0902394
0.00382441
0.0910165
0.00499025
0.0919644
0.00593696
0.0930621
0.00667806
0.0942888
0.00723773
0.00784637
0.0956524
0.130938
-0.0248359
-0.133402
0.128337
-0.0260819
0.125612
-0.0272767
0.122773
-0.0282519
0.119837
-0.0289638
0.116818
-0.0293767
0.113739
-0.0294458
0.110635
-0.02915
0.107541
-0.0284743
0.104498
-0.0274155
0.101549
-0.0259855
0.0987386
-0.0242133
0.0961093
-0.0221434
0.0936999
-0.0198348
0.091543
-0.0173566
0.0896635
-0.014783
0.0880776
-0.0121884
0.0867926
-0.00964183
0.0858079
-0.0072034
0.0851153
-0.00492125
0.0847014
-0.00283073
0.0845486
-0.000954584
0.0846368
0.000695745
0.0849446
0.0021183
0.0854504
0.00331863
0.086133
0.00430762
0.0869722
0.00509775
0.0879483
0.00570199
0.0890423
0.00614372
0.00662621
0.0902624
0.125302
-0.0223654
-0.127773
0.122709
-0.0234885
0.119999
-0.0245667
0.117183
-0.025436
0.114277
-0.0260584
0.111295
-0.0263948
0.108265
-0.0264154
0.105218
-0.0261032
0.102191
-0.0254467
0.0992215
-0.0244464
0.0963528
-0.0231169
0.0936266
-0.021487
0.0910828
-0.0195996
0.0887573
-0.0175094
0.0866798
-0.015279
0.0848721
-0.0129753
0.0833476
-0.0106639
0.0821115
-0.00840572
0.081161
-0.0062529
0.0804868
-0.00424707
0.0800746
-0.00241849
0.0799063
-0.000786315
0.0799619
0.000640166
0.0802203
0.00185994
0.0806603
0.00287856
0.0812618
0.00370615
0.0820054
0.0043542
0.0828725
0.00483491
0.0838457
0.00517052
0.00553889
0.084933
0.11943
-0.0199046
-0.121891
0.116857
-0.0209152
0.114173
-0.0218826
0.111391
-0.0226537
0.108523
-0.0231911
0.105589
-0.0234602
0.102615
-0.0234422
0.0996346
-0.0231224
0.0966814
-0.0224934
0.0937942
-0.0215593
0.0910133
-0.020336
0.0883786
-0.0188523
0.0859277
-0.0171487
0.0836935
-0.0152751
0.0817026
-0.0132881
0.079974
-0.0112468
0.0785188
-0.00920864
0.0773395
-0.00722648
0.0764319
-0.00534525
0.0757853
-0.00360047
0.0753845
-0.00201774
0.0752113
-0.000613067
0.0752453
0.00060609
0.0754659
0.00163938
0.0758524
0.00249211
0.076385
0.00317352
0.0770453
0.00369394
0.0778155
0.00406464
0.0786796
0.00430639
0.0045735
0.079645
0.113296
-0.0174695
-0.115731
0.110755
-0.0183748
0.108109
-0.0192365
0.105371
-0.0199153
0.102552
-0.0203726
0.0996763
-0.0205842
0.0967704
-0.0205362
0.0938653
-0.0202173
0.090996
-0.0196241
0.0881999
-0.0187631
0.0855156
-0.0176517
0.082981
-0.0163177
0.080631
-0.0147987
0.0784958
-0.01314
0.0765992
-0.0113915
0.0749573
-0.00960487
0.0735786
-0.00782992
0.0724638
-0.00611168
0.0716068
-0.00448829
0.070996
-0.00298968
0.0706155
-0.00163723
0.0704466
-0.000444124
0.070469
0.000583667
0.0706621
0.00144624
0.0710058
0.00214846
0.0714807
0.00269856
0.072069
0.00310562
0.0727539
0.00337983
0.07352
0.0035402
0.00371934
0.0743742
0.106864
-0.0150764
-0.109257
0.10437
-0.015881
0.101776
-0.0166422
0.0990925
-0.0172323
0.0963363
-0.0176164
0.0935312
-0.0177791
0.0907042
-0.0177092
0.0878862
-0.0173994
0.0851118
-0.0168496
0.0824173
-0.0160686
0.0798397
-0.0150741
0.0774148
-0.0138927
0.0751748
-0.0125587
0.073147
-0.0111122
0.0713525
-0.00959696
0.0698048
-0.00805714
0.0685099
-0.00653502
0.0674667
-0.00506844
0.0666676
-0.0036892
0.0661
-0.00242207
0.0657473
-0.00128461
0.0655908
-0.000287573
0.0656101
0.00056435
0.0657849
0.00127148
0.0660952
0.00183815
0.0665223
0.00227143
0.0670488
0.00257914
0.0676583
0.00277026
0.0683368
0.00286178
0.0029664
0.0690897
0.100087
-0.0127429
-0.102421
0.0976569
-0.0134507
0.0951294
-0.0141148
0.0925161
-0.014619
0.0898373
-0.0149375
0.0871169
-0.0150587
0.0843824
-0.0149747
0.0816649
-0.0146819
0.0789982
-0.0141829
0.0764176
-0.0134881
0.0739584
-0.012615
0.071654
-0.0115883
0.069534
-0.0104387
0.0676229
-0.00920121
0.065939
-0.00791301
0.0644932
-0.00661129
0.0632892
-0.0053311
0.0623243
-0.00410354
0.0615897
-0.00295453
0.0610717
-0.00190414
0.0607537
-0.000966532
0.0606164
-0.000150277
0.0606398
0.00054094
0.0608037
0.00110753
0.0610887
0.00155318
0.0614763
0.00188379
0.0619496
0.00210586
0.0624928
0.00222707
0.0630923
0.00226225
0.00230581
0.0637529
0.0929063
-0.0104889
-0.0951603
0.0905578
-0.0111022
0.0881133
-0.0116702
0.085588
-0.0120938
0.0830036
-0.0123531
0.0803845
-0.0124396
0.0777587
-0.0123489
0.0751574
-0.0120805
0.0726136
-0.0116391
0.0701614
-0.0110359
0.0678342
-0.0102877
0.0656628
-0.00941692
0.0636743
-0.00845017
0.0618902
-0.00741715
0.060326
-0.00634877
0.0589901
-0.00527542
0.0578844
-0.00422537
0.0570043
-0.00322347
0.0563401
-0.00229026
0.0558775
-0.00144158
0.0555995
-0.000688522
0.055487
-3.78184e-05
0.0555203
0.000507684
0.0556794
0.00094837
0.0559454
0.00128722
0.0563002
0.00152897
0.0567273
0.00167882
0.0572112
0.0017431
0.0577391
0.00173434
0.00173021
0.0583147
0.0852367
-0.00833709
-0.0873884
0.0829901
-0.00885571
0.0806499
-0.00932997
0.0782338
-0.00967768
0.0757641
-0.00988344
0.0732662
-0.00994183
0.0707688
-0.00985151
0.0683027
-0.00961439
0.0659004
-0.00923675
0.0635941
-0.00872968
0.0614152
-0.00810877
0.0593918
-0.00739351
0.057548
-0.00660642
0.0559027
-0.0057718
0.0544683
-0.00491442
0.0532512
-0.00405826
0.052251
-0.00322527
0.0514621
-0.00243457
0.0508737
-0.00170186
0.0504713
-0.00103918
0.0502378
-0.00045498
0.0501544
4.56274e-05
0.0502016
0.000460451
0.0503602
0.000789767
0.0506116
0.00103584
0.0509382
0.00120229
0.051324
0.00129307
0.0517539
0.00131318
0.0522155
0.0012728
0.00123419
0.0527115
0.0769567
-0.00631319
-0.0789806
0.0748382
-0.00673714
0.0726286
-0.00712041
0.0703471
-0.00739622
0.0680174
-0.00755373
0.065666
-0.00759041
0.0633217
-0.00750723
0.0610151
-0.00730774
0.0587772
-0.00699889
0.0566387
-0.00659114
0.0546281
-0.00609817
0.0527708
-0.00553628
0.051088
-0.00492359
0.0495953
-0.00427911
0.0483027
-0.00362179
0.047214
-0.00296958
0.0463274
-0.00233871
0.045636
-0.00174314
0.0451284
-0.00119428
0.0447901
-0.000700845
0.0446041
-0.000268987
0.0445522
9.75303e-05
0.0446156
0.000397037
0.0447757
0.00062965
0.0450146
0.000796948
0.0453154
0.000901508
0.0456623
0.000946161
0.0460408
0.000934652
0.0464388
0.000874826
0.000814759
0.0468582
0.067888
-0.00445027
-0.0697509
0.065931
-0.00478022
0.0638851
-0.00507452
0.0617714
-0.00528247
0.059615
-0.0053973
0.0574432
-0.00541862
0.0552848
-0.00534885
0.0531694
-0.00519234
0.0511264
-0.00495587
0.0491839
-0.00464864
0.0473676
-0.00428191
0.0456998
-0.00386846
0.0441982
-0.00342198
0.0428755
-0.00295639
0.0417389
-0.00248518
0.0407901
-0.00202085
0.0400259
-0.00157453
0.0394385
-0.00115569
0.0390162
-0.000772007
0.0387447
-0.000429386
0.0386078
-0.000132029
0.0385879
0.000117417
0.0386673
0.000317687
0.0388282
0.000468718
0.0390537
0.000571458
0.0393276
0.000627567
0.0396349
0.000638903
0.0399614
0.000608092
0.0402955
0.000540776
0.000471985
0.0406383
0.0577513
-0.00279218
-0.0594094
0.0560006
-0.00302952
0.0541642
-0.00323806
0.0522649
-0.00338322
0.0503291
-0.00346144
0.048384
-0.00347356
0.0464577
-0.00342252
0.0445779
-0.00331261
0.0427718
-0.0031497
0.0410643
-0.00294112
0.0394777
-0.0026953
0.0380306
-0.00242136
0.0367372
-0.00212863
0.0356071
-0.00182628
0.0346448
-0.00152289
0.0338502
-0.00122625
0.0332188
-0.000943103
0.0327422
-0.000679152
0.0324092
-0.000439006
0.0322061
-0.000226238
0.0321175
-4.34535e-05
0.0321273
0.000107592
0.0322191
0.00022597
0.0323763
0.000311447
0.0325834
0.000364424
0.0328251
0.000385779
0.0330875
0.000376579
0.0333571
0.000338509
0.0336226
0.000275223
0.000209787
0.0338848
0.0460837
-0.00140359
-0.0474723
0.0446069
-0.00155273
0.0430504
-0.00168161
0.041438
-0.00177075
0.0397953
-0.00181882
0.0381487
-0.00182696
0.036524
-0.00179782
0.0349463
-0.00173488
0.0334391
-0.00164248
0.0320235
-0.00152558
0.0307178
-0.00138955
0.0295363
-0.00123984
0.0284894
-0.00108179
0.0275835
-0.000920339
0.0268206
-0.000759973
0.0261989
-0.000604589
0.0257133
-0.000457498
0.0253556
-0.000321451
0.0251153
-0.000198686
0.02498
-9.09912e-05
0.0249362
3.40764e-07
0.0249696
7.41982e-05
0.0250656
0.000130011
0.0252096
0.000167412
0.0253877
0.000186408
0.0255862
0.000187266
0.0257923
0.000170423
0.025994
0.000136803
0.0261809
8.8375e-05
3.75184e-05
0.0263531
0.032058
-0.000398691
-0.0330629
0.0309748
-0.000469546
0.0298225
-0.00052933
0.028622
-0.000570285
0.0273961
-0.000592901
0.0261677
-0.00059853
0.024959
-0.000589088
0.0237908
-0.000566687
0.0226819
-0.000533576
0.0216483
-0.000492075
0.0207033
-0.000444464
0.0198563
-0.000392888
0.0191138
-0.000339287
0.0184788
-0.000285347
0.0179513
-0.000232495
0.0175287
-0.00018191
0.0172057
-0.000134553
0.0169755
-9.12123e-05
0.0168293
-5.25484e-05
0.0167576
-1.92309e-05
0.0167498
8.16564e-06
0.0167936
3.03241e-05
0.016878
4.56499e-05
0.0169911
5.42811e-05
0.0171215
5.60476e-05
0.0172579
5.08101e-05
0.0173899
3.84471e-05
0.0175078
1.89537e-05
0.0176035
-7.37302e-06
-3.43112e-05
0.0176753
0.0141406
-0.0145393
0.013671
0.0131417
0.0125714
0.0119785
0.01138
0.0107909
0.0102242
0.00969062
0.00919854
0.00875408
0.00836119
0.00802191
0.00773656
0.00750406
0.00732215
0.0071876
0.00709639
0.00704384
0.00702461
0.00703277
0.0070631
0.00710875
0.00716303
0.00721908
0.00726989
0.00730833
0.00732729
0.00731992
0.0072856
0.351211
-0.178821
0.333818
-0.177271
0.317053
-0.174962
0.300792
-0.17238
0.284928
-0.169562
0.269375
-0.166515
0.25408
-0.163255
0.23901
-0.159795
0.22415
-0.156142
0.209493
-0.152305
0.195043
-0.148288
0.180807
-0.144097
0.166801
-0.139734
0.153042
-0.1352
0.139553
-0.130492
0.126359
-0.125605
0.113488
-0.120531
0.100971
-0.115256
0.0888421
-0.109762
0.0771394
-0.104028
0.0659044
-0.0980217
0.0551855
-0.0917017
0.0450382
-0.085013
0.0355288
-0.077879
0.0267393
-0.0701912
0.0187771
-0.0617887
0.0117916
-0.0524239
0.00601069
-0.0416914
0.0018355
-0.0288877
-0.0127038
0.334617
-0.1622
0.318151
-0.160804
0.302103
-0.158914
0.286405
-0.156682
0.270999
-0.154155
0.25585
-0.151366
0.240939
-0.148344
0.226255
-0.14511
0.211794
-0.141681
0.197559
-0.13807
0.18356
-0.134289
0.169809
-0.130346
0.156322
-0.126247
0.143118
-0.121996
0.130218
-0.117592
0.117645
-0.113032
0.105424
-0.108309
0.0935811
-0.103413
0.0821476
-0.0983289
0.0711558
-0.0930363
0.0606423
-0.0875082
0.0506491
-0.0817085
0.0412249
-0.0755888
0.0324283
-0.0690824
0.0243323
-0.0620952
0.017033
-0.0544894
0.010665
-0.0460559
0.00543224
-0.0364586
0.00167768
-0.0251331
-0.0110261
0.317347
-0.146458
0.30178
-0.145237
0.286469
-0.143603
0.271405
-0.141618
0.256573
-0.139323
0.241965
-0.136758
0.227576
-0.133956
0.213408
-0.130943
0.199468
-0.12774
0.185764
-0.124367
0.172312
-0.120837
0.159126
-0.11716
0.146224
-0.113345
0.133625
-0.109396
0.121348
-0.105315
0.109415
-0.101099
0.0978494
-0.0967433
0.0866751
-0.0922388
0.0759189
-0.0875727
0.0656102
-0.0827275
0.0557815
-0.0776796
0.0464704
-0.0723974
0.0377204
-0.0668388
0.029584
-0.0609461
0.0221272
-0.0546383
0.0154366
-0.0477988
0.00963326
-0.0402525
0.00489767
-0.031723
0.00152211
-0.0217575
-0.00950397
0.300874
-0.131481
0.286034
-0.130397
0.271367
-0.128935
0.25688
-0.127132
0.242585
-0.125028
0.228489
-0.122662
0.214604
-0.12007
0.200941
-0.11728
0.187515
-0.114314
0.174341
-0.111193
0.161435
-0.107931
0.148814
-0.104539
0.136495
-0.101026
0.124497
-0.0973979
0.112837
-0.0936553
0.101535
-0.0897975
0.0906123
-0.0858203
0.0800897
-0.0817162
0.0699911
-0.077474
0.0603423
-0.0730787
0.0511724
-0.0685097
0.0425146
-0.0637396
0.034408
-0.0587322
0.0268996
-0.0534377
0.0200488
-0.0477876
0.0139335
-0.0416834
0.00866121
-0.0349802
0.00438994
-0.0274517
0.00136623
-0.0187338
-0.00813774
0.285149
-0.117139
0.270906
-0.116155
0.256793
-0.114822
0.242832
-0.113171
0.229044
-0.11124
0.215449
-0.109068
0.202066
-0.106688
0.188914
-0.104128
0.17601
-0.101411
0.163372
-0.0985551
0.151018
-0.095576
0.138964
-0.0924846
0.127226
-0.089289
0.115822
-0.0859941
0.104769
-0.0826021
0.0940838
-0.0791123
0.0837846
-0.0755211
0.0738909
-0.0718224
0.0644233
-0.0680065
0.0554049
-0.0640603
0.0468614
-0.0599662
0.0388224
-0.0557007
0.0313228
-0.0512325
0.0244048
-0.0465197
0.0181216
-0.0415043
0.0125425
-0.0361044
0.00776246
-0.0302002
0.0039181
-0.0236074
0.0012165
-0.0160322
-0.00692124
0.270145
-0.103335
0.256424
-0.102433
0.242815
-0.101214
0.22935
-0.0997052
0.216056
-0.0979452
0.202957
-0.0959694
0.190079
-0.093809
0.177441
-0.0914896
0.165063
-0.0890328
0.152963
-0.0864558
0.14116
-0.0837723
0.129668
-0.0809929
0.118504
-0.0781248
0.107682
-0.0751728
0.0972192
-0.0721389
0.0871295
-0.0690226
0.0774296
-0.0658212
0.0681363
-0.0625291
0.0592681
-0.0591383
0.0508453
-0.0556375
0.0428908
-0.0520117
0.035431
-0.0482408
0.0284969
-0.0442985
0.0221264
-0.0401492
0.0163669
-0.0357448
0.0112798
-0.0310173
0.00694814
-0.0258686
0.00348951
-0.0201487
0.00107793
-0.0136207
-0.00584331
0.255867
-0.0900149
0.242626
-0.0891922
0.229497
-0.0880847
0.216514
-0.0867218
0.203707
-0.0851383
0.191105
-0.0833668
0.178731
-0.0814352
0.166608
-0.0793667
0.154756
-0.0771805
0.143192
-0.0748919
0.131933
-0.0725133
0.120994
-0.0700538
0.110389
-0.06752
0.100132
-0.0649161
0.0902369
-0.0622438
0.0807172
-0.059503
0.0715871
-0.0566911
0.0628616
-0.0538036
0.054557
-0.0508337
0.0466912
-0.0477718
0.0392847
-0.0446051
0.0323608
-0.0413169
0.0259475
-0.0378851
0.0200783
-0.0342801
0.0147955
-0.030462
0.0101532
-0.026375
0.00622386
-0.0219392
0.0031084
-0.0170333
0.000953716
-0.011466
-0.00488959
0.242328
-0.0771534
0.22955
-0.0764142
0.216891
-0.0754252
0.204385
-0.0742159
0.192064
-0.0728178
0.179957
-0.0712596
0.168088
-0.0695659
0.156478
-0.0677568
0.145146
-0.0658489
0.13411
-0.0638556
0.123384
-0.0617873
0.112982
-0.0596521
0.102918
-0.0574555
0.0932029
-0.0552011
0.0838495
-0.0528905
0.0748699
-0.0505233
0.0662765
-0.0480977
0.0580826
-0.0456097
0.0503027
-0.0430538
0.0429527
-0.0404217
0.0360507
-0.0377031
0.0296176
-0.0348839
0.0236784
-0.0319458
0.0182629
-0.0288647
0.0134087
-0.0256077
0.00916332
-0.0221296
0.00559003
-0.0183659
0.00277576
-0.014219
0.000845186
-0.00953541
-0.0040444
0.229541
-0.0647435
0.217222
-0.0640953
0.205031
-0.0632341
0.193002
-0.0621875
0.181168
-0.0609835
0.169555
-0.0596467
0.158187
-0.0581978
0.147084
-0.0566539
0.136264
-0.0550291
0.125743
-0.0533344
0.115534
-0.0515786
0.105651
-0.0497684
0.0961035
-0.0479084
0.0869039
-0.0460015
0.0780626
-0.0440491
0.0695902
-0.042051
0.061498
-0.0400054
0.0537976
-0.0379093
0.0465018
-0.035758
0.0396249
-0.0335449
0.0331831
-0.0312613
0.0271951
-0.0288959
0.0216831
-0.0264338
0.0166738
-0.0238554
0.0122005
-0.0211344
0.00830528
-0.0182344
0.0050434
-0.0151041
0.00249019
-0.0116658
0.000752365
-0.00779759
-0.00329204
0.217509
-0.0527872
0.205652
-0.0522384
0.193932
-0.0515136
0.182382
-0.0506379
0.171033
-0.0496349
0.159911
-0.0485249
0.149039
-0.047325
0.138434
-0.046049
0.128113
-0.0447085
0.118091
-0.0433124
0.10838
-0.0418677
0.0989918
-0.04038
0.0899362
-0.0388527
0.0812231
-0.0372884
0.0728621
-0.0356881
0.0648628
-0.0340516
0.057235
-0.0323776
0.0499892
-0.0306636
0.0431368
-0.0289057
0.0366907
-0.0270987
0.0306653
-0.0252359
0.0250774
-0.023308
0.0199469
-0.0213033
0.0152979
-0.0192064
0.0111599
-0.0169964
0.00757041
-0.0146449
0.00457804
-0.0121117
0.00224858
-0.00933632
0.000674409
-0.00622342
-0.00261763
0.206225
-0.0412909
0.194834
-0.0408482
0.183587
-0.0402665
0.172517
-0.0395672
0.161651
-0.0387692
0.151015
-0.0378885
0.140628
-0.0369384
0.130509
-0.0359298
0.120672
-0.0348717
0.111131
-0.0337709
0.101896
-0.0326331
0.0929781
-0.0314622
0.0843867
-0.0302613
0.0761303
-0.029032
0.0682174
-0.0277753
0.0606567
-0.0264909
0.053457
-0.0251779
0.0466276
-0.0238342
0.040179
-0.0224571
0.0341227
-0.0210424
0.0284716
-0.0195848
0.0232411
-0.0180775
0.0184491
-0.0165113
0.0141172
-0.0148745
0.0102722
-0.0131514
0.00694744
-0.0113202
0.00418624
-0.00935048
0.00204672
-0.0071968
0.000609958
-0.00478666
-0.00200767
0.195664
-0.030261
0.184744
-0.0299288
0.173972
-0.0294942
0.163378
-0.0289737
0.152991
-0.0283814
0.142831
-0.0277291
0.13292
-0.0270265
0.123271
-0.0262817
0.113901
-0.0255011
0.10482
-0.0246898
0.0960383
-0.0238517
0.087566
-0.0229899
0.0794111
-0.0221064
0.0715816
-0.0212025
0.0640852
-0.0202789
0.0569297
-0.0193354
0.0501231
-0.0183713
0.0436739
-0.0173851
0.0375916
-0.0163747
0.0318866
-0.0153373
0.0265708
-0.014269
0.0216581
-0.0131648
0.0171649
-0.0120181
0.013111
-0.0108206
0.00952043
-0.00956081
0.00642356
-0.00822328
0.00385935
-0.00678627
0.00187985
-0.0052173
0.000557391
-0.00346421
-0.00145028
0.185789
-0.019702
0.175343
-0.0194822
0.165044
-0.0191954
0.154923
-0.0188529
0.145005
-0.0184639
0.135313
-0.0180362
0.125862
-0.017576
0.116669
-0.0170886
0.107746
-0.0165781
0.099104
-0.0160479
0.0907527
-0.0155004
0.0827005
-0.0149377
0.0749552
-0.014361
0.067524
-0.0137713
0.060414
-0.0131689
0.0536322
-0.0125536
0.0471861
-0.0119251
0.0410834
-0.0112825
0.0353329
-0.0106242
0.0299442
-0.00994857
0.0249282
-0.009253
0.0202977
-0.00853431
0.0160679
-0.00778832
0.0122568
-0.00700955
0.00888676
-0.00619074
0.00598543
-0.00532194
0.00358841
-0.00438926
0.00174302
-0.00337191
0.00051501
-0.0022362
-0.000935271
0.176555
-0.00961529
0.16658
-0.00950685
0.15675
-0.00936575
0.147095
-0.00919755
0.137638
-0.00900678
0.128399
-0.00879718