/*--------------------------------*- C++ -*----------------------------------*\
  =========                 |
  \\      /  F ield         | OpenFOAM: The Open Source CFD Toolbox
   \\    /   O peration     | Website:  https://openfoam.org
    \\  /    A nd           | Version:  12
     \\/     M anipulation  |
\*---------------------------------------------------------------------------*/
FoamFile
{
    format      ascii;
    class       volScalarField;
    location    "120";
    object      pMean;
}
// * * * * * * * * * * * * * * * * * * * * * * * * * * * * * * * * * * * * * //

dimensions      [0 2 -2 0 0 0 0];

internalField   nonuniform List<scalar> 
6750
(
-0.00709472
-0.00712788
-0.00719217
-0.00738611
-0.00829134
-0.00520641
-0.00522372
-0.00532655
-0.0055674
-0.00588326
-0.00309506
-0.00313284
-0.00323842
-0.00341309
-0.00353664
-0.000932542
-0.00100504
-0.00110479
-0.00122314
-0.00127409
0.00119038
0.00107429
0.000965667
0.000876443
0.000863981
0.00319442
0.00303045
0.00290279
0.00282649
0.00283426
0.00503051
0.00481747
0.0046674
0.00459778
0.00461802
0.00666898
0.00640768
0.00623534
0.00617066
0.00620036
0.00809137
0.00778429
0.00759163
0.00753171
0.00756932
0.00928774
0.00893887
0.00872886
0.00867394
0.00871814
0.0102558
0.00987041
0.00964664
0.0095968
0.00964625
0.0110001
0.0105844
0.0103509
0.0103059
0.0103593
0.0115319
0.011092
0.0108533
0.0108126
0.0108683
0.0118674
0.0114088
0.0111709
0.0111326
0.0111889
0.0120218
0.0115574
0.011325
0.0112849
0.0113398
0.0120221
0.0115578
0.0113254
0.0112853
0.0113402
0.0118684
0.0114099
0.011172
0.0111337
0.01119
0.0115337
0.0110938
0.0108551
0.0108144
0.0108701
0.0110026
0.0105869
0.0103535
0.0103085
0.0103619
0.0102589
0.00987359
0.00964986
0.00960007
0.00964955
0.00929155
0.00894271
0.00873275
0.00867788
0.0087221
0.0080958
0.00778876
0.00759615
0.00753629
0.00757392
0.006674
0.00641275
0.00624047
0.00617585
0.00620561
0.00503608
0.00482308
0.00467308
0.00460356
0.00462384
0.00320048
0.00303655
0.00290897
0.00283275
0.00284056
0.00119686
0.00108081
0.000972268
0.000883128
0.000870676
-0.000925717
-0.000998169
-0.00109785
-0.00121612
-0.00126709
-0.00308796
-0.00312571
-0.00323121
-0.00340583
-0.00352945
-0.00519911
-0.00521638
-0.00531916
-0.00556
-0.00587598
-0.00708728
-0.00712041
-0.00718467
-0.00737862
-0.00828389
-0.013643
-0.0131836
-0.0119683
-0.0110919
-0.0104714
-0.00998071
-0.0095907
-0.00928146
-0.00902736
-0.00882646
-0.00866971
-0.00851662
-0.00838106
-0.00826362
-0.00816698
-0.00809753
-0.0080626
-0.00806725
-0.00811642
-0.0082141
-0.00835796
-0.00849352
-0.00865908
-0.00884254
-0.00903065
-0.00921544
-0.00938994
-0.00953365
-0.00963585
-0.00989082
-0.0101181
-0.00948896
-0.0088385
-0.0085371
-0.00837722
-0.00828038
-0.0082413
-0.00824431
-0.00826928
-0.00833068
-0.00840357
-0.00843638
-0.00844571
-0.00842638
-0.00838054
-0.00831814
-0.0082536
-0.00820191
-0.00817761
-0.00818959
-0.0082382
-0.00836995
-0.0085251
-0.00871631
-0.00893794
-0.00918199
-0.00944259
-0.00970036
-0.00989974
-0.0101235
-0.00771986
-0.00758508
-0.00732483
-0.00721552
-0.00716868
-0.00717007
-0.00722747
-0.00732735
-0.0074603
-0.00765593
-0.00786443
-0.00805515
-0.00824044
-0.00840875
-0.00855448
-0.00867757
-0.00878197
-0.00887441
-0.00896293
-0.00905554
-0.00915864
-0.00926959
-0.00939746
-0.00954215
-0.00970204
-0.00987489
-0.0100624
-0.0102547
-0.0103753
-0.0104293
-0.0061956
-0.00638382
-0.00626603
-0.00620432
-0.00620297
-0.00625997
-0.00637797
-0.00654405
-0.00676003
-0.00706174
-0.00737909
-0.00770788
-0.00805084
-0.00839198
-0.00871932
-0.00902396
-0.00929993
-0.00954453
-0.00975799
-0.00994327
-0.0101045
-0.0102412
-0.0103632
-0.0104758
-0.0105823
-0.0106862
-0.0107955
-0.0109088
-0.0109316
-0.0107778
-0.00496705
-0.00526252
-0.00520455
-0.00519496
-0.0052578
-0.00538545
-0.00557667
-0.00582266
-0.00613617
-0.00654345
-0.00697264
-0.00743437
-0.00792147
-0.00841485
-0.00889788
-0.0093555
-0.00977511
-0.0101476
-0.0104681
-0.0107355
-0.0109524
-0.0111227
-0.0112535
-0.0113529
-0.0114283
-0.011487
-0.0115422
-0.011599
-0.0115446
-0.0111881
-0.00385044
-0.00416637
-0.00415693
-0.00421045
-0.0043435
-0.00454484
-0.00481321
-0.00514516
-0.00556448
-0.00607561
-0.00662012
-0.00721126
-0.0078347
-0.00846882
-0.00909306
-0.00968767
-0.0102352
-0.0107222
-0.01114
-0.0114851
-0.0117588
-0.0119658
-0.0121138
-0.0122123
-0.0122709
-0.0122998
-0.0123164
-0.0123309
-0.0122141
-0.0116716
-0.002816
-0.00311987
-0.00315713
-0.00327329
-0.00347369
-0.00374704
-0.00409196
-0.0045114
-0.00503884
-0.00565031
-0.00631019
-0.00702673
-0.00778055
-0.00854778
-0.0093044
-0.0100268
-0.0106936
-0.011288
-0.0117985
-0.0122196
-0.0125515
-0.0127988
-0.0129701
-0.0130759
-0.0131274
-0.0131366
-0.0131252
-0.0131065
-0.012936
-0.0122282
-0.00184681
-0.00212095
-0.00220081
-0.0023778
-0.00264368
-0.00298866
-0.00341063
-0.00392061
-0.00455423
-0.00526411
-0.00603876
-0.00687709
-0.00775635
-0.00865052
-0.00953256
-0.0103755
-0.0111551
-0.0118515
-0.012451
-0.0129465
-0.0133373
-0.013628
-0.0138274
-0.013947
-0.013999
-0.0139975
-0.0139666
-0.0139229
-0.0137063
-0.0128545
-0.000924792
-0.00115801
-0.00127792
-0.0015156
-0.00184719
-0.00226379
-0.00276548
-0.00337045
-0.00410417
-0.00491408
-0.00580267
-0.00675981
-0.0077605
-0.00877675
-0.00977874
-0.0107367
-0.0116238
-0.0124178
-0.0131034
-0.013672
-0.0141222
-0.0144584
-0.0146898
-0.0148285
-0.0148876
-0.0148825
-0.0148399
-0.0147779
-0.0145215
-0.0135468
-3.60833e-05
-0.00022274
-0.000381921
-0.000680608
-0.00107901
-0.00156774
-0.00215111
-0.00285532
-0.00368442
-0.00459717
-0.00559862
-0.00667235
-0.00779159
-0.00892633
-0.0100443
-0.0111133
-0.0121041
-0.0129927
-0.0137622
-0.014403
-0.0149131
-0.0152968
-0.0155634
-0.0157255
-0.0157971
-0.0157944
-0.015747
-0.0156729
-0.0153815
-0.0143022
0.000829219
0.000691994
0.000494434
0.00013298
-0.000334221
-0.000896003
-0.00156334
-0.00236909
-0.00329138
-0.00430941
-0.00542328
-0.00661239
-0.00784843
-0.00909937
-0.0103307
-0.011508
-0.0126002
-0.0135816
-0.0144339
-0.0151468
-0.0157176
-0.0161505
-0.0164551
-0.0166444
-0.0167329
-0.0167378
-0.0166914
-0.0166102
-0.0162875
-0.0151189
0.00167942
0.00159319
0.00135769
0.000931827
0.000394037
-0.000243397
-0.000999678
-0.0019048
-0.00292184
-0.00404727
-0.00527381
-0.00657802
-0.00793017
-0.00929622
-0.0106396
-0.011924
-0.0131164
-0.0141898
-0.0151248
-0.0159101
-0.0165428
-0.017027
-0.0173723
-0.0175921
-0.0177013
-0.0177184
-0.0176776
-0.0175939
-0.0172431
-0.0159968
0.00252263
0.00248827
0.00221507
0.00172252
0.00111247
0.000395611
-0.000455909
-0.00145633
-0.00257265
-0.00380753
-0.00514764
-0.00656764
-0.00803624
-0.00951746
-0.0109728
-0.0123641
-0.0136569
-0.0148227
-0.015841
-0.0167001
-0.0173965
-0.0179342
-0.018323
-0.0185765
-0.0187101
-0.0187433
-0.0187125
-0.0186304
-0.0182538
-0.0169381
0.00336663
0.00338469
0.00307423
0.00251243
0.00182763
0.00102733
7.54819e-05
-0.00101913
-0.00223985
-0.00358673
-0.00504235
-0.00657985
-0.00816634
-0.00976395
-0.0113323
-0.0128317
-0.014226
-0.0154856
-0.0165891
-0.017524
-0.0182865
-0.0188804
-0.0193158
-0.0196064
-0.019768
-0.0198212
-0.0198047
-0.019728
-0.019327
-0.0179473
0.00421827
0.00429276
0.00394519
0.00331129
0.00254668
0.00165613
0.000603261
-0.000588942
-0.00191916
-0.00338146
-0.0049556
-0.00661345
-0.0083204
-0.0100368
-0.0117205
-0.0133302
-0.0148285
-0.0161844
-0.0173758
-0.0183895
-0.0192212
-0.0198749
-0.0203603
-0.0206917
-0.0208851
-0.0209623
-0.0209643
-0.0208965
-0.0204726
-0.0190315
0.00508528
0.005224
0.00483986
0.00412994
0.0032786
0.00228826
0.00113569
-0.000161235
-0.00160627
-0.00318827
-0.00488515
-0.00666736
-0.00849862
-0.0103375
-0.0121402
-0.0138638
-0.0154696
-0.0169256
-0.0182087
-0.0193051
-0.0202102
-0.0209276
-0.0214674
-0.0218437
-0.0220731
-0.0221787
-0.0222035
-0.0221483
-0.0217026
-0.0202011
0.00597809
0.00619205
0.00577103
0.00497937
0.00403265
0.00293414
0.00167992
0.000269885
-0.00129615
-0.00300351
-0.00482869
-0.00674067
-0.00870143
-0.0106678
-0.0125944
-0.0144369
-0.0161552
-0.0177163
-0.0190962
-0.0202804
-0.0212639
-0.0220503
-0.0226495
-0.0230757
-0.0233458
-0.0234845
-0.0235371
-0.0234984
-0.0230321
-0.0214696
0.00691421
0.00721078
0.006754
0.00587009
0.0048162
0.00360779
0.0022434
0.000711321
-0.000983234
-0.00282323
-0.00478388
-0.0068326
-0.00892963
-0.0110302
-0.0130872
-0.015055
-0.0168923
-0.0185649
-0.0200479
-0.0213263
-0.0223947
-0.0232562
-0.0239208
-0.0244028
-0.0247194
-0.0248968
-0.0249828
-0.0249652
-0.0244798
-0.0228549
0.00791372
0.00829533
0.00780346
0.00681805
0.0056437
0.00432165
0.00283482
0.00117086
-0.00066133
-0.00264311
-0.00474826
-0.00694253
-0.00918446
-0.0114276
-0.0136234
-0.0157247
-0.017689
-0.0194811
-0.0210753
-0.0224558
-0.0236167
-0.024561
-0.0252985
-0.0258436
-0.0262136
-0.0264365
-0.0265623
-0.0265712
-0.0260681
-0.0243797
0.00899782
0.00947111
0.00894102
0.00783934
0.00653521
0.00508856
0.00346629
0.0016585
-0.000323011
-0.00245816
-0.00471919
-0.00707013
-0.00946779
-0.0118641
-0.014209
-0.016454
-0.0185554
-0.020477
-0.0221922
-0.0236844
-0.0249474
-0.0259837
-0.0268031
-0.02742
-0.0278516
-0.0281281
-0.0283015
-0.0283436
-0.0278261
-0.0260732
0.0101982
0.0107676
0.0101916
0.00895773
0.00751503
0.00592601
0.0041524
0.00218607
4.04588e-05
-0.0022627
-0.00469392
-0.00721546
-0.00978243
-0.0123451
-0.0148521
-0.0172534
-0.0195043
-0.0215676
-0.0234156
-0.0250315
-0.0264081
-0.0275478
-0.0284601
-0.0291593
-0.029663
-0.0300033
-0.0302347
-0.0303177
-0.0297897
-0.0279725
0.0115578
0.0122199
0.0115858
0.0102084
0.00860917
0.00685638
0.00491199
0.00276816
0.0004396
-0.0020501
-0.00466958
-0.00737927
-0.0101326
-0.0128782
-0.0155631
-0.0181364
-0.020552
-0.0227718
-0.0247676
-0.0265214
-0.0280258
-0.0292828
-0.0303015
-0.0310961
-0.0316846
-0.0321008
-0.0324019
-0.0325368
-0.032005
-0.0301261
0.0131322
0.0138806
0.0131744
0.0116358
0.00985193
0.00790932
0.0057691
0.00342314
0.000887351
-0.00181262
-0.00464338
-0.00756349
-0.0105246
-0.0134737
-0.0163567
-0.0191212
-0.0217204
-0.0241152
-0.0262766
-0.0281861
-0.0298358
-0.0312271
-0.032369
-0.0332753
-0.0339646
-0.0344721
-0.0348578
-0.0350591
-0.0345331
-0.0325981
0.0150024
0.0158255
0.0150281
0.0132944
0.0112898
0.00912357
0.0067549
0.00417452
0.00139983
-0.00154121
-0.004613
-0.00777209
-0.0109683
-0.0141472
-0.0172533
-0.0202333
-0.0230394
-0.0256321
-0.0279815
-0.0300686
-0.0318852
-0.033432
-0.0347179
-0.0357562
-0.036566
-0.0371847
-0.0376741
-0.0379595
-0.0374549
-0.0354748
0.017293
0.0181617
0.0172357
0.0152596
0.012988
0.0105526
0.00791143
0.00505337
0.00199754
-0.00122538
-0.00457735
-0.00801276
-0.0114796
-0.014922
-0.0182832
-0.0215094
-0.024552
-0.0273711
-0.0299366
-0.032229
-0.0342394
-0.0359685
-0.0374246
-0.0386207
-0.0395762
-0.0403315
-0.0409489
-0.0413413
-0.04088
-0.0388757
0.0201754
0.0210458
0.0199285
0.0176445
0.0150402
0.0122731
0.00929804
0.00610232
0.00270728
-0.000853248
-0.00453838
-0.00830014
-0.0120846
-0.0158347
-0.0194928
-0.0230047
-0.0263218
-0.0294042
-0.0322216
-0.0347544
-0.0369934
-0.0389389
-0.0405987
-0.0419855
-0.043119
-0.0440423
-0.0448203
-0.0453507
-0.0449665
-0.0429732
0.0239459
0.0247152
0.0233062
0.0206182
0.0175896
0.0143997
0.0110013
0.00738093
0.00356331
-0.000413871
-0.00450629
-0.00866332
-0.0128293
-0.0169461
-0.0209563
-0.0248059
-0.0284473
-0.0318412
-0.034958
-0.0377782
-0.0402925
-0.0425005
-0.0444095
-0.0460315
-0.0473862
-0.0485184
-0.0494951
-0.0502042
-0.0499466
-0.0480257
0.0291173
0.0295669
0.0276767
0.0244346
0.0208425
0.0170926
0.0131371
0.00896457
0.00460393
9.76926e-05
-0.0045058
-0.00915306
-0.0137869
-0.0183492
-0.0227836
-0.0270381
-0.0310675
-0.0348348
-0.0383119
-0.0414806
-0.0443319
-0.0468653
-0.0490869
-0.0510082
-0.0526484
-0.0540527
-0.0552874
-0.0562388
-0.0562049
-0.0544863
0.0366253
0.0363592
0.0336915
0.0296924
0.025333
0.0207963
0.0160448
0.0110812
0.00594661
0.000693643
-0.00462172
-0.00994134
-0.0152066
-0.0203605
-0.0253503
-0.0301285
-0.0346548
-0.0388973
-0.0428308
-0.0464388
-0.0497161
-0.0526611
-0.0552737
-0.0575633
-0.0595466
-0.0612642
-0.062777
-0.0639882
-0.0642751
-0.0629876
0.0499349
0.0479091
0.0435444
0.0381796
0.0325224
0.0266712
0.020617
0.0143954
0.00806724
0.0016964
-0.00465611
-0.0109328
-0.0170808
-0.0230534
-0.0288104
-0.0343185
-0.0395503
-0.0444832
-0.0491013
-0.0533921
-0.0573425
-0.0609485
-0.0642142
-0.0671403
-0.0697326
-0.0720144
-0.0740343
-0.0757714
-0.0768294
-0.0764557
-0.0103488
-0.00926823
-0.00747727
-0.00600578
-0.00472875
-0.00351811
-0.00234615
-0.00120593
-8.84485e-05
0.00101583
0.00211604
0.00322163
0.0043429
0.00549093
0.00667765
0.00791713
0.00922613
0.0106249
0.0121368
0.013789
0.015618
0.01767
0.0200037
0.0226987
0.0258646
0.0296612
0.0343021
0.0400841
0.0471994
0.0566737
-0.0059343
-0.00482831
-0.003592
-0.00252936
-0.00155293
-0.000604412
0.000327144
0.00124627
0.00216042
0.00307783
0.00400667
0.00495525
0.00593247
0.00694796
0.00801265
0.0091395
0.0103442
0.0116459
0.0130678
0.0146393
0.0163988
0.0183966
0.0206995
0.0234
0.026628
0.0305735
0.0355086
0.041845
0.0500684
0.0612357
-0.00335667
-0.00236197
-0.00138906
-0.000501217
0.000371768
0.00124816
0.00212596
0.00300682
0.00389613
0.00480023
0.00572587
0.00668039
0.00767196
0.00870983
0.00980476
0.0109697
0.0122203
0.0135762
0.0150615
0.016707
0.0185534
0.0206544
0.0230826
0.0259386
0.0293655
0.0335707
0.0388596
0.0456988
0.0547431
0.0671316
-0.00107581
-0.000191534
0.00066623
0.00147227
0.00227868
0.00309752
0.00392887
0.00477615
0.00564508
0.00654184
0.00747299
0.00844574
0.00946823
0.0105499
0.0117017
0.0129371
0.0142725
0.0157283
0.0173299
0.0191102
0.0211122
0.0233927
0.0260286
0.0291265
0.0328365
0.0373753
0.0430613
0.0503718
0.0600479
0.073249
0.00105572
0.00184326
0.00260817
0.00334001
0.00408373
0.00485129
0.00564425
0.00646611
0.00732201
0.00821756
0.00915896
0.0101532
0.0112085
0.0123343
0.0135422
0.014846
0.0162631
0.0178147
0.0195279
0.0214374
0.0235884
0.0260408
0.0288753
0.0322029
0.0361793
0.0410278
0.047075
0.0548037
0.065035
0.0789665
0.00300611
0.00370624
0.00439068
0.00505939
0.00575293
0.00648191
0.00724774
0.00805353
0.00890385
0.00980392
0.0107596
0.0117779
0.0128668
0.014036
0.0152972
0.0166648
0.0181567
0.0197951
0.0216082
0.0236321
0.0259139
0.0285159
0.0315217
0.0350458
0.0392486
0.0443588
0.050711
0.0587974
0.0695181
0.0841432
0.00476799
0.00538915
0.00600438
0.00662095
0.00727478
0.0079745
0.00872113
0.00951739
0.0103674
0.0112761
0.012249
0.0132928
0.0144156
0.0156271
0.0169392
0.0183667
0.0199279
0.0216456
0.0235489
0.0256752
0.0280728
0.0308057
0.0339599
0.0376526
0.0420477
0.0473785
0.053987
0.0623758
0.0735108
0.0887511
0.00633387
0.00688365
0.0074392
0.00801282
0.00863516
0.00931271
0.010046
0.0108375
0.0116907
0.0126102
0.0136014
0.0146706
0.0158259
0.0170772
0.0184364
0.0199185
0.0215423
0.0233311
0.0253147
0.0275312
0.0300302
0.0328769
0.0361589
0.0399957
0.0445537
0.05007
0.056893
0.0655349
0.0770111
0.0927631
0.00769401
0.00817978
0.00868447
0.00922327
0.00982102
0.0104821
0.0112066
0.0119964
0.0128549
0.013786
0.0147949
0.015888
0.0170731
0.0183601
0.0197611
0.0212914
0.0229699
0.0248204
0.0268733
0.0291673
0.0317527
0.0346958
0.0380855
0.0420427
0.0467362
0.0524057
0.0594051
0.0682547
0.0800076
0.0961629
0.0088411
0.00927072
0.00973318
0.0102445
0.0108234
0.0114724
0.0121913
0.0129815
0.0138459
0.0147883
0.0158135
0.0169278
0.018139
0.0194568
0.0208937
0.0224648
0.0241895
0.0260919
0.0282025
0.0305608
0.0332177
0.0362401
0.0397178
0.043773
0.0485761
0.0543689
0.0615095
0.0705247
0.0824915
0.0989651
0.00977264
0.0101548
0.0105834
0.0110736
0.0116385
0.012279
0.0129944
0.013786
0.0146563
0.0156088
0.016648
0.0177801
0.019013
0.0203563
0.0218225
0.023427
0.0251891
0.0271333
0.0292905
0.0317002
0.034414
0.0374994
0.0410467
0.0451791
0.0500681
0.0559568
0.0632071
0.0723491
0.0844736
0.101201
0.0104918
0.0108358
0.0112386
0.0117134
0.0122682
0.0129028
0.0136162
0.0144096
0.015285
0.0162457
0.0172963
0.0184426
0.0196924
0.0210557
0.0225447
0.0241749
0.0259659
0.0279423
0.030135
0.0325841
0.0353413
0.0384744
0.0420744
0.0462649
0.0512183
0.0571786
0.0645106
0.073745
0.0859824
0.102903
0.0110073
0.011323
0.0117076
0.0121717
0.0127198
0.0133504
0.0140629
0.0148579
0.0157373
0.0167042
0.0177631
0.0189198
0.020182
0.0215597
0.0230651
0.0247139
0.0265257
0.028525
0.0307431
0.0332203
0.0360082
0.0391753
0.0428125
0.0470441
0.0520429
0.0580533
0.0654427
0.0747394
0.0870552
0.104111
0.011333
0.0116302
0.0120033
0.012461
0.0130049
0.0136334
0.0143454
0.0151416
0.0160237
0.0169947
0.0180589
0.0192223
0.0204926
0.0218795
0.0233954
0.0250561
0.026881
0.0288949
0.0311292
0.0336241
0.0364316
0.03962
0.0432808
0.0475383
0.0525656
0.0586074
0.0660331
0.0753665
0.0877267
0.104878
0.0114861
0.0117744
0.0121421
0.0125967
0.0131389
0.0137663
0.0144782
0.015275
0.0161585
0.0171315
0.0181984
0.0193651
0.0206391
0.0220305
0.0235515
0.0252178
0.027049
0.0290699
0.0313119
0.0338153
0.0366321
0.0398309
0.0435029
0.0477728
0.0528137
0.0588704
0.0663136
0.0756629
0.088038
0.105251
0.0114865
0.0117748
0.0121424
0.0125971
0.0131392
0.0137667
0.0144786
0.0152754
0.0161588
0.0171318
0.0181987
0.0193654
0.0206394
0.0220307
0.0235517
0.025218
0.0270492
0.0290701
0.0313121
0.0338155
0.0366323
0.0398311
0.0435032
0.047773
0.0528139
0.0588706
0.0663137
0.075663
0.0880382
0.105252
0.0113341
0.0116313
0.0120044
0.0124621
0.013006
0.0136345
0.0143464
0.0151426
0.0160247
0.0169957
0.0180599
0.0192233
0.0204935
0.0218803
0.0233962
0.0250568
0.0268817
0.0288956
0.0311298
0.0336247
0.0364322
0.0396207
0.0432815
0.0475391
0.0525663
0.0586081
0.0660336
0.0753668
0.0877274
0.104879
0.0110092
0.0113249
0.0117094
0.0121735
0.0127216
0.0133522
0.0140647
0.0148596
0.015739
0.0167058
0.0177646
0.0189213
0.0201835
0.0215611
0.0230664
0.0247152
0.0265268
0.0285261
0.0307442
0.0332213
0.0360093
0.0391763
0.0428136
0.0470453
0.0520441
0.0580545
0.0654436
0.0747401
0.0870564
0.104112
0.0104944
0.0108384
0.0112412
0.0117159
0.0122707
0.0129052
0.0136187
0.014412
0.0152873
0.016248
0.0172984
0.0184446
0.0196944
0.0210576
0.0225465
0.0241767
0.0259676
0.0279438
0.0301365
0.0325856
0.0353427
0.0384759
0.0420759
0.0462665
0.0512199
0.0571803
0.064512
0.0737463
0.0859841
0.102905
0.00977596
0.0101581
0.0105867
0.0110768
0.0116417
0.0122821
0.0129974
0.013789
0.0146592
0.0156116
0.0166507
0.0177827
0.0190154
0.0203587
0.0218248
0.0234292
0.0251912
0.0271353
0.0292924
0.0317022
0.034416
0.0375013
0.0410487
0.0451811
0.0500701
0.055959
0.0632092
0.0723511
0.0844759
0.101203
0.00884508
0.00927471
0.00973712
0.0102483
0.0108272
0.0114761
0.0121949
0.012985
0.0138494
0.0147917
0.0158168
0.0169309
0.0181419
0.0194597
0.0208964
0.0224675
0.0241921
0.0260944
0.028205
0.0305632
0.03322
0.0362424
0.03972
0.0437753
0.0485785
0.0543717
0.0615125
0.0705276
0.0824945
0.0989674
0.00769864
0.00818442
0.00868903
0.00922775
0.0098254
0.0104864
0.0112107
0.0120005
0.0128588
0.0137898
0.0147986
0.0158916
0.0170765
0.0183634
0.0197643
0.0212945
0.0229729
0.0248234
0.0268762
0.0291701
0.0317555
0.0346985
0.038088
0.0420452
0.0467389
0.0524092
0.059409
0.0682585
0.0800113
0.0961655
0.00633915
0.00688892
0.00744436
0.00801786
0.00864008
0.00931752
0.0100507
0.0108421
0.0116952
0.0126146
0.0136055
0.0146746
0.0158298
0.0170809
0.01844
0.019922
0.0215457
0.0233345
0.025318
0.0275345
0.0300334
0.0328799
0.0361618
0.0399985
0.0445569
0.0500742
0.0568979
0.0655397
0.0770152
0.092766
0.00477384
0.00539497
0.00601007
0.0066265
0.0072802
0.00797979
0.0087263
0.00952243
0.0103723
0.0112808
0.0122536
0.0132972
0.0144198
0.0156312
0.0169432
0.0183706
0.0199317
0.0216494
0.0235527
0.0256788
0.0280763
0.0308091
0.033963
0.0376558
0.0420515
0.0473835
0.0539929
0.0623814
0.073515
0.0887542
0.00301242
0.00371252
0.00439682
0.00506539
0.0057588
0.00648764
0.00725334
0.00805899
0.00890916
0.00980908
0.0107647
0.0117827
0.0128714
0.0140405
0.0153016
0.0166691
0.0181609
0.0197993
0.0216123
0.0236361
0.0259178
0.0285196
0.0315252
0.0350495
0.039253
0.0443646
0.0507178
0.0588037
0.0695225
0.0841461
0.0010624
0.0018499
0.00261469
0.00334639
0.00408998
0.00485741
0.00565023
0.00647195
0.0073277
0.00822311
0.00916436
0.0101585
0.0112136
0.0123392
0.0135469
0.0148507
0.0162676
0.0178192
0.0195323
0.0214417
0.0235926
0.0260448
0.0288792
0.0322071
0.0361844
0.0410343
0.0470824
0.0548104
0.0650395
0.0789692
-0.00106885
-0.000184606
0.000673053
0.00147897
0.00228526
0.00310398
0.0039352
0.00478234
0.00565112
0.00654774
0.00747875
0.00845135
0.00947367
0.0105551
0.0117068
0.0129421
0.0142774
0.0157331
0.0173347
0.0191149
0.0211168
0.0233971
0.0260331
0.0291313
0.0328423
0.0373825
0.0430691
0.0503784
0.0600522
0.0732514
-0.00334955
-0.00235483
-0.00138199
-0.000494241
0.000378634
0.00125491
0.00213258
0.00301331
0.00390249
0.00480646
0.00573197
0.00668634
0.00767776
0.00871546
0.00981022
0.010975
0.0122256
0.0135814
0.0150665
0.016712
0.0185583
0.0206593
0.0230875
0.0259441
0.0293718
0.0335781
0.0388672
0.0457048
0.0547469
0.0671339
-0.00592706
-0.00482095
-0.00358468
-0.00252216
-0.00154586
-0.000597452
0.000333986
0.00125299
0.00216702
0.00308432
0.00401303
0.00496149
0.00593856
0.00695391
0.00801844
0.00914514
0.0103497
0.0116513
0.0130731
0.0146445
0.0164039
0.0184017
0.0207049
0.0234061
0.0266347
0.0305807
0.0355153
0.0418499
0.0500715
0.0612383
-0.0103411
-0.00926026
-0.00746951
-0.00599827
-0.00472143
-0.00351096
-0.00233915
-0.00119908
-8.17485e-05
0.00102238
0.00212244
0.00322788
0.00434901
0.00549689
0.00668345
0.00792276
0.00923157
0.0106302
0.0121418
0.013794
0.015623
0.017675
0.020009
0.022705
0.0258713
0.0296675
0.0343073
0.0400873
0.0472018
0.0566767
0.0499386
0.0479132
0.0435481
0.038183
0.0325257
0.0266748
0.0206205
0.0143986
0.00806998
0.0016985
-0.00465476
-0.0109322
-0.0170811
-0.0230545
-0.0288124
-0.0343212
-0.0395536
-0.044487
-0.0491057
-0.053397
-0.0573477
-0.060954
-0.0642198
-0.067146
-0.0697384
-0.0720203
-0.0740403
-0.0757777
-0.0768363
-0.0764631
0.0366277
0.0363612
0.0336937
0.0296952
0.025336
0.0207994
0.0160476
0.0110835
0.00594827
0.000694634
-0.00462141
-0.00994173
-0.0152076
-0.0203623
-0.0253527
-0.0301315
-0.0346584
-0.0389016
-0.0428356
-0.046444
-0.0497217
-0.052667
-0.0552798
-0.0575695
-0.0595529
-0.0612706
-0.0627833
-0.0639946
-0.0642812
-0.0629937
0.0291201
0.0295701
0.0276802
0.0244383
0.020846
0.0170956
0.0131395
0.00896624
0.00460489
9.79671e-05
-0.00450616
-0.00915402
-0.0137885
-0.0183513
-0.0227863
-0.0270414
-0.0310713
-0.0348392
-0.038317
-0.0414862
-0.0443381
-0.0468719
-0.0490939
-0.0510154
-0.0526557
-0.05406
-0.0552946
-0.0562456
-0.0562113
-0.0544921
0.0239503
0.0247196
0.0233104
0.0206219
0.0175925
0.0144018
0.0110025
0.00738139
0.00356314
-0.00041457
-0.00450745
-0.00866489
-0.0128313
-0.0169485
-0.0209591
-0.0248093
-0.0284513
-0.0318459
-0.0349633
-0.0377843
-0.0402992
-0.0425079
-0.0444175
-0.0460399
-0.0473948
-0.048527
-0.0495034
-0.0502119
-0.0499535
-0.0480315
0.0201808
0.0210507
0.0199327
0.0176474
0.0150418
0.0122738
0.00929797
0.00610156
0.002706
-0.000854912
-0.00454033
-0.00830233
-0.0120871
-0.0158374
-0.0194959
-0.0230082
-0.0263259
-0.0294089
-0.032227
-0.0347606
-0.0370004
-0.0389466
-0.0406071
-0.0419944
-0.0431284
-0.0440517
-0.0448296
-0.0453595
-0.0449743
-0.0429797
0.0172989
0.0181664
0.017239
0.0152614
0.0129887
0.0105523
0.00791031
0.00505163
0.00199537
-0.00122784
-0.00457998
-0.0080155
-0.0114825
-0.014925
-0.0182866
-0.0215131
-0.0245562
-0.0273759
-0.0299421
-0.0322352
-0.0342464
-0.0359762
-0.0374329
-0.0386296
-0.0395856
-0.040341
-0.0409586
-0.0413507
-0.0408887
-0.0388834
0.015008
0.0158297
0.0150307
0.013296
0.01129
0.00912274
0.00675328
0.00417229
0.00139716
-0.00154414
-0.00461606
-0.00777522
-0.0109715
-0.0141505
-0.0172568
-0.0202371
-0.0230437
-0.0256368
-0.0279868
-0.0300747
-0.0318919
-0.0334394
-0.0347259
-0.0357648
-0.036575
-0.037194
-0.0376837
-0.0379691
-0.0374641
-0.0354835
0.0131368
0.0138843
0.013177
0.0116371
0.00985202
0.00790846
0.00576743
0.00342081
0.000884553
-0.00181571
-0.00464663
-0.00756681
-0.0105279
-0.0134772
-0.0163603
-0.0191251
-0.0217246
-0.0241198
-0.0262817
-0.0281918
-0.0298421
-0.031234
-0.0323764
-0.0332832
-0.033973
-0.0344809
-0.0348669
-0.0350684
-0.0345426
-0.0326074
0.0115623
0.0122237
0.0115887
0.01021
0.00860946
0.0068557
0.0049105
0.00276598
0.000436895
-0.00205315
-0.00467282
-0.0073826
-0.0101359
-0.0128816
-0.0155667
-0.0181401
-0.020556
-0.0227762
-0.0247724
-0.0265266
-0.0280316
-0.0292891
-0.0303083
-0.0311034
-0.0316923
-0.0321091
-0.0324105
-0.0325458
-0.0320143
-0.0301357
0.0102026
0.0107714
0.0101944
0.00895964
0.00751568
0.00592563
0.00415117
0.00218412
3.79392e-05
-0.0022656
-0.00469705
-0.0072187
-0.0097857
-0.0123484
-0.0148555
-0.017257
-0.0195081
-0.0215716
-0.0234201
-0.0250363
-0.0264133
-0.0275535
-0.0284663
-0.029166
-0.0296702
-0.030011
-0.0302428
-0.0303264
-0.0297989
-0.027982
0.00900225
0.00947507
0.00894406
0.00784139
0.00653627
0.0050885
0.00346532
0.00165678
-0.000325327
-0.00246088
-0.00472216
-0.0070732
-0.00947088
-0.0118672
-0.0142122
-0.0164573
-0.0185589
-0.0204807
-0.0221962
-0.0236887
-0.0249521
-0.0259889
-0.0268088
-0.0274262
-0.0278584
-0.0281356
-0.0283094
-0.0283521
-0.0278351
-0.0260824
0.00791831
0.00829954
0.0078068
0.0068203
0.00564506
0.00432191
0.00283417
0.00116937
-0.000663431
-0.00264562
-0.00475101
-0.00694537
-0.0091873
-0.0114304
-0.0136262
-0.0157277
-0.0176921
-0.0194845
-0.0210789
-0.0224597
-0.023621
-0.0245657
-0.0253037
-0.0258494
-0.02622
-0.0264434
-0.0265699
-0.0265794
-0.0260769
-0.0243888
0.006919
0.00721521
0.00675758
0.00587263
0.00481772
0.00360843
0.00224298
0.000710071
-0.000985078
-0.00282548
-0.00478635
-0.00683514
-0.00893218
-0.0110327
-0.0130898
-0.0150577
-0.0168951
-0.0185679
-0.0200512
-0.0213298
-0.0223986
-0.0232605
-0.0239257
-0.0244083
-0.0247255
-0.0249036
-0.0249903
-0.0249733
-0.0244883
-0.0228638
0.0059831
0.00619668
0.0057748
0.00498209
0.00403434
0.00293491
0.00167978
0.000268938
-0.00129767
-0.00300541
-0.00483081
-0.00674287
-0.00870364
-0.01067
-0.0125967
-0.0144393
-0.0161578
-0.0177191
-0.0190992
-0.0202836
-0.0212676
-0.0220544
-0.0226541
-0.0230809
-0.0233517
-0.0234911
-0.0235444
-0.0235062
-0.0230404
-0.0214782
0.00509052
0.00522883
0.00484385
0.00413292
0.00328055
0.00228921
0.00113593
-0.000161767
-0.00160737
-0.00318975
-0.00488684
-0.00666917
-0.00850048
-0.0103394
-0.0121422
-0.013866
-0.0154719
-0.0169282
-0.0182115
-0.0193082
-0.0202137
-0.0209316
-0.0214719
-0.0218488
-0.0220789
-0.0221851
-0.0222106
-0.022156
-0.0217107
-0.0202094
0.00422369
0.00429782
0.00394945
0.0033146
0.00254901
0.00165753
0.000603855
-0.000588988
-0.00191977
-0.00338245
-0.00495683
-0.00661483
-0.00832192
-0.0100384
-0.0117223
-0.0133322
-0.0148306
-0.0161868
-0.0173785
-0.0183924
-0.0192246
-0.0198787
-0.0203647
-0.0206967
-0.0208908
-0.0209687
-0.0209714
-0.020904
-0.0204805
-0.0190396
0.00337223
0.00338999
0.00307878
0.0025161
0.00183038
0.00102923
7.65593e-05
-0.00101864
-0.0022399
-0.0035872
-0.00504309
-0.00658082
-0.0081675
-0.00976531
-0.0113339
-0.0128335
-0.014228
-0.0154879
-0.0165917
-0.0175269
-0.0182898
-0.0188843
-0.0193202
-0.0196114
-0.0197737
-0.0198275
-0.0198117
-0.0197354
-0.0193348
-0.0179551
0.0025284
0.00249381
0.00221994
0.00172657
0.00111566
0.000398049
-0.000454206
-0.00145527
-0.00257214
-0.00380744
-0.0051479
-0.00656819
-0.00803706
-0.00951855
-0.0109741
-0.0123657
-0.0136588
-0.0148249
-0.0158436
-0.0167031
-0.0173999
-0.0179381
-0.0183274
-0.0185815
-0.0187158
-0.0187496
-0.0187194
-0.0186378
-0.0182614
-0.0169458
0.0016854
0.00159899
0.00136288
0.000936217
0.000397613
-0.000240447
-0.000997383
-0.00190316
-0.00292075
-0.00404665
-0.00527359
-0.00657816
-0.00793065
-0.00929703
-0.0106407
-0.0119255
-0.0131183
-0.0141921
-0.0151274
-0.0159132
-0.0165463
-0.017031
-0.0173769
-0.0175972
-0.0177071
-0.0177248
-0.0176845
-0.0176012
-0.0172507
-0.0160044
0.000835352
0.000698012
0.000499934
0.000137768
-0.000330123
-0.000892536
-0.00156049
-0.00236689
-0.00328974
-0.00430826
-0.00542259
-0.00661212
-0.00784858
-0.00909992
-0.0103317
-0.0115094
-0.012602
-0.0135839
-0.0144366
-0.0151499
-0.0157212
-0.0161546
-0.0164598
-0.0166496
-0.0167387
-0.0167442
-0.0166982
-0.0166175
-0.0162951
-0.0151264
-2.97372e-05
-0.000216515
-0.000376171
-0.000675456
-0.00107431
-0.00156375
-0.00214772
-0.00285259
-0.00368223
-0.00459552
-0.00559747
-0.00667168
-0.0077914
-0.00892662
-0.0100451
-0.0111145
-0.0121058
-0.012995
-0.013765
-0.0144063
-0.0149169
-0.0153011
-0.0155682
-0.0157309
-0.015803
-0.0158008
-0.0157538
-0.0156802
-0.015389
-0.0143097
-0.000918262
-0.00115161
-0.00127191
-0.00151011
-0.00184213
-0.00225932
-0.00276162
-0.00336719
-0.00410147
-0.00491194
-0.00580107
-0.00675875
-0.00775998
-0.00877679
-0.00977934
-0.0107379
-0.0116255
-0.0124202
-0.0131063
-0.0136754
-0.0141261
-0.0144629
-0.0146948
-0.014834
-0.0148936
-0.014889
-0.0148467
-0.0147851
-0.0145289
-0.0135542
-0.00184011
-0.00211437
-0.00219459
-0.00237204
-0.0026383
-0.00298373
-0.00340635
-0.00391687
-0.00455104
-0.00526148
-0.00603671
-0.00687564
-0.00775551
-0.00865031
-0.009533
-0.0103766
-0.0111569
-0.0118539
-0.012454
-0.0129501
-0.0133415
-0.0136327
-0.0138326
-0.0139526
-0.0140051
-0.014004
-0.0139735
-0.0139301
-0.0137136
-0.0128618
-0.00280912
-0.00311314
-0.00315064
-0.00326709
-0.00346793
-0.00374176
-0.00408722
-0.00450717
-0.00503519
-0.00564723
-0.00630772
-0.0070249
-0.00777941
-0.00854734
-0.00930469
-0.0100278
-0.0106954
-0.0112905
-0.0118016
-0.0122234
-0.0125558
-0.0128037
-0.0129754
-0.0130816
-0.0131336
-0.0131431
-0.0131319
-0.0131134
-0.0129432
-0.0122355
-0.00384346
-0.00415947
-0.00415023
-0.00420394
-0.00433736
-0.00453924
-0.00480805
-0.00514048
-0.00556038
-0.00607209
-0.00661724
-0.00720908
-0.00783326
-0.00846816
-0.00909322
-0.00968864
-0.010237
-0.0107248
-0.0111433
-0.0114891
-0.0117633
-0.0119708
-0.0121192
-0.0122181
-0.0122771
-0.0123063
-0.0123231
-0.0123379
-0.0122212
-0.0116788
-0.00495978
-0.00525548
-0.00519758
-0.0051882
-0.00525148
-0.00537946
-0.00557108
-0.00581756
-0.00613164
-0.00653953
-0.00696938
-0.00743185
-0.00791976
-0.008414