/*--------------------------------*- C++ -*----------------------------------*\
  =========                 |
  \\      /  F ield         | OpenFOAM: The Open Source CFD Toolbox
   \\    /   O peration     | Website:  https://openfoam.org
    \\  /    A nd           | Version:  12
     \\/     M anipulation  |
\*---------------------------------------------------------------------------*/
FoamFile
{
    format      ascii;
    class       volScalarField;
    location    "120";
    object      pPrime2Mean;
}
// * * * * * * * * * * * * * * * * * * * * * * * * * * * * * * * * * * * * * //

dimensions      [0 4 -4 0 0 0 0];

internalField   nonuniform List<scalar> 
6750
(
0.010441
0.0104247
0.0104033
0.0103844
0.0103686
0.0104575
0.0104359
0.0104019
0.0103614
0.0103194
0.0105196
0.0104927
0.0104484
0.0103913
0.01033
0.0106255
0.0105968
0.010549
0.0104864
0.0104194
0.0107697
0.0107435
0.0106996
0.0106415
0.0105793
0.0109428
0.0109228
0.0108889
0.0108432
0.0107939
0.0111324
0.0111214
0.0111023
0.0110746
0.0110444
0.0113257
0.0113257
0.0113241
0.0113183
0.0113116
0.0115108
0.0115225
0.0115398
0.0115577
0.0115766
0.0116777
0.0117008
0.0117368
0.0117782
0.0118228
0.0118186
0.0118523
0.0119053
0.0119683
0.0120367
0.0119289
0.0119713
0.0120387
0.0121199
0.0122087
0.0120062
0.0120553
0.0121335
0.0122286
0.012333
0.0120505
0.0121039
0.0121891
0.0122933
0.0124079
0.0120637
0.012119
0.0122073
0.0123156
0.012435
0.0120486
0.0121037
0.0121915
0.0122993
0.0124182
0.0120054
0.0120579
0.0121417
0.0122444
0.0123574
0.0119312
0.0119788
0.0120548
0.0121474
0.012249
0.0118247
0.0118652
0.0119296
0.0120074
0.0120923
0.0116864
0.0117177
0.0117672
0.011826
0.0118897
0.011519
0.0115395
0.0115715
0.0116082
0.0116475
0.0113277
0.0113366
0.0113497
0.0113626
0.0113759
0.0111205
0.0111177
0.0111118
0.0111009
0.0110886
0.0109077
0.010894
0.0108706
0.0108379
0.0108023
0.0107014
0.0106787
0.0106408
0.0105903
0.0105359
0.0105146
0.0104859
0.0104381
0.0103756
0.0103085
0.0103596
0.0103286
0.0102771
0.0102103
0.0101389
0.010246
0.0102169
0.0101691
0.0101081
0.0100428
0.0101793
0.0101556
0.0101185
0.0100743
0.0100286
0.0101608
0.0101429
0.010119
0.0100972
0.010079
0.010326
0.0102395
0.0100743
0.00984495
0.00955535
0.0092082
0.00880473
0.00834633
0.00783736
0.00728433
0.00669499
0.00608301
0.00546206
0.00484748
0.00425456
0.00369689
0.00318528
0.00272695
0.00232515
0.00197929
0.00168612
0.00144336
0.00124305
0.00107931
0.000946685
0.00084001
0.000755056
0.000688094
0.000636364
0.000604507
0.0103264
0.0101847
0.00997866
0.00971614
0.00939892
0.00902881
0.00860839
0.00814163
0.00763428
0.00709277
0.00652439
0.00594215
0.00535693
0.00478116
0.00422684
0.00370448
0.00322252
0.00278665
0.00239992
0.002063
0.00177453
0.00152862
0.00132359
0.0011538
0.0010144
0.000901194
0.000810255
0.000737742
0.000679745
0.000636249
0.0102866
0.0101052
0.00986761
0.00958069
0.00924423
0.00886017
0.00843142
0.00796257
0.00746006
0.00692984
0.00638053
0.00582351
0.00526803
0.00472434
0.00420195
0.00370901
0.00325202
0.00283557
0.00246223
0.00213268
0.00184596
0.0016002
0.00139189
0.00121729
0.00107241
0.000953395
0.000856617
0.000778319
0.00071522
0.000666907
0.0102274
0.0100202
0.00975946
0.00945489
0.00910693
0.00871632
0.00828564
0.00781963
0.00732466
0.00680596
0.00627341
0.0057364
0.00520331
0.00468303
0.00418359
0.00371183
0.00327317
0.00287148
0.00250906
0.00218664
0.00190368
0.0016588
0.00144928
0.00127201
0.00112353
0.00100024
0.000898379
0.000814416
0.000745708
0.000695923
0.0101621
0.0099363
0.00965777
0.00933972
0.00898441
0.00859127
0.00816252
0.00770237
0.00721647
0.00670968
0.00619204
0.00567134
0.0051555
0.0046526
0.00416988
0.00371357
0.00328858
0.00289846
0.0025453
0.00222982
0.00195155
0.00170909
0.0015002
0.00132205
0.00117147
0.001045
0.000938917
0.000849504
0.000775984
0.000725143
0.0101008
0.00986046
0.00956869
0.00924045
0.00887979
0.00848648
0.00806151
0.00760851
0.00713191
0.00663653
0.00613159
0.0056239
0.00512104
0.00463068
0.00415979
0.00371442
0.00329941
0.00291819
0.00257275
0.00226369
0.00199043
0.00175142
0.00154443
0.00136668
0.00121507
0.00108633
0.000976723
0.000882803
0.000805268
0.000753929
0.0100501
0.00979823
0.00949606
0.0091604
0.00879597
0.0084034
0.00798295
0.00753719
0.00706913
0.00658391
0.00608927
0.00559145
0.00509784
0.00461595
0.00415283
0.00371469
0.00330651
0.00293182
0.00259256
0.00228918
0.00202085
0.00178575
0.00158139
0.00140484
0.00125302
0.00112276
0.00101048
0.000913012
0.000832234
0.000780867
0.0100155
0.00975417
0.00944356
0.00910195
0.00873534
0.00834358
0.00792752
0.00748817
0.00702731
0.00655041
0.00606345
0.00557241
0.0050846
0.00460758
0.0041487
0.00371455
0.00331044
0.0029401
0.00260548
0.00230686
0.00204309
0.00181197
0.00161062
0.00143585
0.00128453
0.00115332
0.00103914
0.000939136
0.00085581
0.000804619
0.0100019
0.00973246
0.00941433
0.00906741
0.00869911
0.00830824
0.00789577
0.00746147
0.00700625
0.00653527
0.00605315
0.00556579
0.00508047
0.00460501
0.00414719
0.00371412
0.00331156
0.00294351
0.00261198
0.00231707
0.00205727
0.00182995
0.00163177
0.00145922
0.00130902
0.00117769
0.00106241
0.000960464
0.000875112
0.000824057
0.0100142
0.00973725
0.00941163
0.00905932
0.00868903
0.00829894
0.00788869
0.00745755
0.007006
0.00653821
0.00605796
0.00557109
0.005085
0.00460789
0.00414813
0.00371342
0.00331005
0.00294232
0.0026123
0.00231994
0.00206339
0.00183952
0.00164455
0.00147457
0.00132591
0.00119529
0.00107961
0.000976226
0.00088924
0.000838159
0.0100574
0.00977284
0.00943904
0.0090803
0.00870695
0.00831674
0.00790735
0.00747723
0.00702702
0.00655944
0.0060779
0.00558822
0.00509805
0.00461611
0.00415145
0.00371248
0.00330599
0.00293662
0.00260652
0.0023155
0.00206136
0.00184051
0.00164868
0.00148151
0.00133498
0.00120565
0.00109007
0.00098568
0.000897381
0.000846043
0.0101371
0.00984397
0.00950054
0.00913364
0.00875566
0.0083637
0.00795315
0.00752181
0.00707016
0.00659959
0.00611337
0.00561742
0.00511972
0.0046297
0.00415717
0.00371127
0.00329936
0.00292638
0.0025946
0.00230366
0.00205104
0.00183273
0.00164392
0.00147978
0.00133576
0.00120826
0.00109312
0.000988078
0.000898813
0.000847007
0.0102596
0.00995628
0.0096012
0.0092238
0.00883923
0.00844261
0.0080283
0.00759317
0.00713683
0.00665973
0.00616516
0.0056592
0.00515035
0.00464883
0.00416535
0.0037098
0.00329009
0.0029115
0.00257638
0.00228426
0.00203228
0.00181597
0.00163003
0.00146901
0.00132776
0.00120218
0.00108801
0.000982756
0.000892961
0.000840548
0.0104328
0.0101166
0.00974714
0.00935601
0.00896163
0.00855729
0.00813608
0.00769387
0.00722906
0.00674149
0.00623445
0.00571437
0.00519044
0.00467381
0.00417612
0.00370804
0.00327805
0.00289176
0.00255164
0.00225708
0.00200486
0.00179005
0.00160675
0.0014488
0.00131054
0.00118712
0.00107423
0.000969274
0.000879517
0.000826463
0.010666
0.0103336
0.0099462
0.00953729
0.00912922
0.00871314
0.00828089
0.00782753
0.00734973
0.00684706
0.00632283
0.00578402
0.0052407
0.00470504
0.00418966
0.003706
0.0032631
0.00286694
0.0025201
0.00222184
0.00196855
0.00175472
0.00157376
0.00141886
0.00128363
0.00116263
0.00105148
0.000947477
0.000858517
0.000804998
0.0109712
0.0106184
0.0102089
0.00977726
0.00935062
0.00891761
0.00846924
0.00799926
0.00750279
0.00697929
0.00643232
0.00586951
0.00530198
0.00474302
0.00420617
0.00370364
0.00324508
0.00283681
0.0024815
0.00217822
0.00192297
0.00170954
0.00153062
0.00137871
0.00124664
0.00112846
0.00101973
0.000917597
0.0008305
0.000777086
0.0113639
0.010986
0.0105494
0.0100889
0.00963738
0.00918087
0.00870987
0.00821579
0.00769332
0.00714188
0.00656543
0.00597249
0.00537535
0.0047883
0.00422582
0.0037009
0.00322379
0.00280114
0.00243558
0.00212593
0.0018677
0.00165402
0.00147679
0.0013278
0.00119931
0.00108466
0.000979398
0.000880514
0.000796865
0.000744727
0.0118653
0.0114563
0.0109868
0.0104892
0.0100046
0.00951623
0.00901323
0.00848554
0.00792774
0.00733941
0.00672531
0.00609504
0.00546199
0.00484144
0.00424875
0.00369768
0.00319902
0.00275964
0.00238204
0.00206463
0.00180239
0.00158779
0.001412
0.00126606
0.0011417
0.00103184
0.000931701
0.000838205
0.000760443
0.000711677
0.0125042
0.0120566
0.0115463
0.0110006
0.010472
0.00994028
0.00939266
0.00881897
0.00821389
0.00757757
0.00691584
0.00623953
0.00556315
0.00490292
0.00427504
0.00369389
0.0031706
0.00271206
0.00232054
0.00199396
0.00172675
0.00151073
0.00133642
0.00119408
0.00107495
0.000971712
0.000879393
0.000794693
0.000726531
0.000684527
0.0133207
0.0128236
0.0122613
0.0116525
0.0110649
0.0104734
0.00986495
0.00922905
0.00856139
0.00786313
0.00714146
0.00640858
0.00568012
0.00497324
0.00430475
0.00368941
0.00313836
0.00265822
0.00225086
0.00191375
0.0016408
0.00142329
0.00125109
0.0011138
0.00100213
0.000908518
0.000828183
0.000757728
0.000704827
0.000674829
0.0143708
0.0138085
0.0131786
0.0124855
0.0118164
0.0111428
0.0104512
0.00973202
0.00898198
0.00820405
0.00740715
0.006605
0.0058143
0.00505293
0.004338
0.00368415
0.00310212
0.00259797
0.002173
0.00182423
0.00154517
0.00132673
0.00115829
0.0010289
0.000928775
0.000850239
0.000788639
0.000741421
0.000712715
0.000703099
0.0157332
0.0150817
0.0143619
0.0135536
0.0127716
0.0119848
0.0111796
0.0103483
0.00948991
0.00860966
0.00771861
0.00683197
0.00596728
0.00514265
0.0043749
0.00367797
0.00306169
0.00253124
0.0020872
0.00172616
0.00144139
0.00122369
0.00106229
0.00094602
0.000864752
0.000810858
0.000779973
0.000770705
0.000780565
0.000805522
0.0175142
0.0167392
0.0158989
0.0149305
0.0139913
0.0130472
0.0120856
0.0111033
0.0101023
0.00909097
0.00808251
0.00709323
0.00614092
0.0052431
0.0044155
0.00367061
0.00301684
0.00245811
0.00199415
0.00162112
0.00133231
0.00111887
0.000970534
0.000876514
0.000826847
0.000814149
0.000834327
0.000887829
0.000958774
0.00104197
0.0198478
0.0189057
0.0179021
0.0167125
0.0155542
0.0143903
0.0132136
0.0120278
0.0108398
0.00966105
0.00850662
0.00739302
0.00633715
0.00535485
0.00445961
0.00366164
0.00296725
0.00237877
0.00189498
0.00151171
0.00122268
0.00102012
0.00089531
0.000839094
0.00084275
0.000899286
0.00100466
0.00116041
0.00132558
0.00150102
0.0228901
0.0217265
0.0205094
0.0190202
0.017558
0.0160868
0.0146158
0.0131579
0.0117259
0.0103346
0.00899938
0.0077356
0.0065576
0.00547792
0.00450646
0.00365001
0.00291205
0.00229303
0.00179077
0.00140122
0.00111919
0.000939115
0.000855443
0.000862615
0.000954896
0.0011262
0.00137003
0.0016856
0.00198896
0.00229745
0.0268022
0.0253508
0.0238572
0.0219681
0.0200893
0.0182028
0.0163396
0.0145265
0.0127829
0.0111257
0.00956912
0.00812521
0.00680369
0.00561186
0.0045543
0.00363314
0.00284833
0.00219825
0.00168018
0.00129104
0.00102807
0.000889642
0.000875528
0.000986188
0.00122083
0.00157403
0.00203275
0.00258427
0.00307842
0.00356675
0.0316708
0.029846
0.0279815
0.02558
0.0231697
0.0207629
0.018414
0.0161655
0.0140432
0.0120646
0.0102417
0.00858175
0.00708855
0.00576289
0.0046031
0.00360597
0.00276772
0.00208491
0.00155512
0.00117756
0.000953707
0.000887716
0.000986326
0.00125712
0.0017045
0.00232218
0.00308611
0.00396119
0.00472124
0.00544691
0.0378339
0.0353841
0.0329152
0.0299123
0.0269149
0.0239414
0.0210562
0.0183104
0.0157369
0.0133588
0.0111903
0.00923853
0.00750449
0.00598487
0.00467364
0.00356381
0.00264927
0.00192596
0.00139289
0.00105231
0.000909614
0.000972685
0.00125038
0.00174978
0.00247209
0.0034062
0.00452236
0.00578154
0.00696489
0.0081135
0.0473982
0.0442388
0.0410431
0.0373381
0.0336018
0.0298298
0.0261092
0.022524
0.0191403
0.0160094
0.0131655
0.0106262
0.00839655
0.00647265
0.0048463
0.00350888
0.0024544
0.0016811
0.00119249
0.000996001
0.00109979
0.00150917
0.00222207
0.00322349
0.00448277
0.00594905
0.00755739
0.00926825
0.010772
0.0122767
0.0771875
0.0715211
0.0650821
0.0585329
0.0520001
0.0454831
0.039127
0.0330711
0.0274295
0.0222914
0.0177137
0.0137214
0.0103152
0.0074808
0.00519977
0.00345773
0.00225073
0.00158848
0.00149178
0.00198768
0.00310173
0.00484677
0.00721228
0.0101573
0.0136081
0.0174588
0.0215767
0.0259282
0.0303982
0.0344476
0.0103414
0.0102894
0.0102423
0.0101989
0.0101616
0.0101327
0.0101158
0.0101152
0.0101353
0.0101807
0.0102567
0.0103691
0.010525
0.0107326
0.011002
0.0113463
0.0117818
0.0123312
0.0130259
0.01391
0.0150462
0.0165228
0.0184588
0.021001
0.024317
0.028589
0.0340131
0.0411761
0.052016
0.0835265
0.0102819
0.0102447
0.0102131
0.0101882
0.0101748
0.0101746
0.0101904
0.0102251
0.0102826
0.0103674
0.0104846
0.0106407
0.0108431
0.011101
0.011426
0.0118323
0.0123389
0.0129712
0.0137646
0.0147676
0.0160491
0.0177044
0.0198608
0.0226733
0.0263171
0.0310041
0.0370758
0.0452379
0.057016
0.0903355
0.0102963
0.0102907
0.01029
0.0102948
0.0103102
0.0103393
0.0103854
0.0104523
0.0105442
0.0106658
0.0108227
0.0110217
0.0112707
0.0115799
0.0119615
0.0124314
0.0130109
0.013728
0.0146215
0.0157446
0.0171711
0.019003
0.0213747
0.0244472
0.0283996
0.033472
0.0401374
0.0492129
0.0616522
0.0978898
0.0103973
0.0104238
0.0104549
0.0104908
0.0105376
0.0105988
0.0106784
0.0107803
0.0109093
0.0110706
0.0112702
0.0115153
0.0118146
0.0121789
0.0126215
0.0131597
0.0138164
0.0146221
0.0156177
0.016859
0.0184225
0.0204123
0.0229637
0.026233
0.0303908
0.0357008
0.0428117
0.0528224
0.0657198
0.106003
0.0105724
0.0106281
0.0106895
0.0107565
0.0108353
0.0109302
0.0110455
0.0111855
0.0113552
0.0115602
0.011807
0.0121034
0.0124586
0.0128842
0.0133946
0.0140085
0.0147503
0.0156523
0.0167571
0.018122
0.0198241
0.021967
0.024682
0.0281144
0.0324175
0.037876
0.0453531
0.0563888
0.0694047
0.114583
0.0108044
0.0108858
0.0109754
0.0110726
0.0111834
0.0113126
0.0114648
0.0116448
0.0118576
0.0121094
0.0124069
0.0127584
0.0131738
0.0136653
0.0142483
0.0149425
0.0157737
0.0167754
0.0179913
0.0194784
0.0213128
0.0235946
0.0264473
0.0299993
0.0343812
0.0398978
0.0476792
0.0599546
0.0727304
0.12395
0.011074
0.0111776
0.0112929
0.0114189
0.0115612
0.0117246
0.011914
0.0121345
0.0123915
0.0126914
0.0130414
0.01345
0.0139276
0.014487
0.0151443
0.0159202
0.0168414
0.0179419
0.0192653
0.0208679
0.0228227
0.0252247
0.0281866
0.0318156
0.0362139
0.0417056
0.0497372
0.0635942
0.0757887
0.134553
0.0113611
0.011484
0.0116222
0.011775
0.0119473
0.012144
0.0123699
0.0126303
0.012931
0.0132786
0.0136805
0.0141457
0.0146848
0.0153111
0.0160412
0.0168966
0.017904
0.0190977
0.0205207
0.0222274
0.0242874
0.0267894
0.0298343
0.0335042
0.0378674
0.0432628
0.0514856
0.0673784
0.0787055
0.146877
0.0116464
0.0117857
0.011944
0.0121211
0.0123213
0.0125492
0.0128097
0.0131081
0.0134504
0.0138433
0.0142945
0.0148133
0.0154104
0.0160995
0.0168977
0.0178264
0.0189126
0.0201901
0.0217009
0.0234974
0.0256459
0.0282288
0.0313352
0.0350195
0.0393097
0.0445528
0.0528936
0.0713566
0.0816342
0.161309
0.011912
0.0120652
0.0122409
0.0124394
0.0126646
0.0129208
0.0132127
0.0135458
0.013926
0.0143601
0.014856
0.015423
0.0160723
0.0168176
0.0176761
0.0186691
0.0198235
0.0211724
0.0227569
0.0246275
0.0268473
0.0294943
0.0326467
0.0363291
0.0405225
0.045578
0.0539503
0.0755385
0.0847334
0.177955
0.0121435
0.0123082
0.0124983
0.012715
0.0129617
0.0132424
0.0135617
0.0139249
0.0143378
0.0148075
0.0153417
0.01595
0.0166436
0.0174363
0.0183452
0.0193915
0.0206017
0.0220083
0.0236514
0.0255801
0.0278551
0.0305513
0.033739
0.0374121
0.0414988
0.0463544
0.0546698
0.07987
0.0881158
0.196412
0.0123303
0.012504
0.0127057
0.0129371
0.0132013
0.013502
0.0138436
0.0142312
0.0146708
0.0151691
0.0157342
0.0163756
0.0171045
0.0179347
0.018883
0.0199706
0.0212235
0.0226739
0.0243609
0.0263323
0.0286475
0.0313802
0.0345954
0.0382582
0.0422398
0.046906
0.0550912
0.0842054
0.091779
0.215538
0.012466
0.0126464
0.0128567
0.0130991
0.0133764
0.0136921
0.0140503
0.0144562
0.0149155
0.0154352
0.0160231
0.0166888
0.0174434
0.0183007
0.0192774
0.0203943
0.0216774
0.0231582
0.0248754
0.0268757
0.029218
0.0319758
0.0352119
0.0388662
0.0427538
0.0472588
0.0552726
0.0882976
0.0955459
0.233517
0.0125484
0.0127331
0.0129491
0.0131987
0.0134846
0.01381
0.014179
0.0145967
0.0150688
0.0156022
0.0162049
0.0168861
0.0176571
0.0185314
0.0195258
0.020661
0.0219626
0.0234621
0.0251974
0.0272149
0.0295729
0.0323458
0.0355964
0.0392451
0.0430583
0.0474433
0.0552818
0.0917341
0.0989719
0.248098
0.012579
0.0127658
0.0129845
0.0132376
0.0135276
0.0138576
0.0142318
0.014655
0.0151332
0.0156731
0.0162826
0.016971
0.0177495
0.0186317
0.0196342
0.0207778
0.022088
0.0235962
0.0253399
0.0273652
0.0297305
0.0325109
0.0357697
0.0394174
0.0431901
0.0475114
0.0552163
0.093709
0.101134
0.256406
0.0125619
0.0127488
0.0129675
0.0132207
0.0135107
0.0138406
0.0142147
0.0146378
0.0151157
0.0156554
0.0162646
0.0169525
0.0177305
0.0186122
0.0196144
0.0207578
0.0220681
0.0235765
0.0253207
0.0273467
0.029713
0.0324949
0.0357557
0.0394052
0.0431793
0.0475027
0.0551971
0.0936731
0.101108
0.256724
0.0124971
0.012682
0.0128982
0.0131481
0.013434
0.0137592
0.014128
0.0145453
0.0150169
0.0155496
0.0161512
0.0168312
0.0176008
0.0184739
0.0194673
0.0206021
0.0219039
0.0234042
0.025141
0.0271606
0.0295218
0.0322993
0.0355555
0.0392097
0.0430272
0.0474178
0.0552278
0.0916387
0.0989045
0.24901
0.0123807
0.0125615
0.0127724
0.0130153
0.0132929
0.0136086
0.0139667
0.0143721
0.0148307
0.0153492
0.0159358
0.0165996
0.0173523
0.0182077
0.019183
0.0202993
0.0215828
0.0230651
0.0247848
0.026789
0.0291368
0.031902
0.0351471
0.0388099
0.0427049
0.047219
0.0551954
0.088175
0.0954612
0.234906
0.0122122
0.0123866
0.0125892
0.0128216
0.0130865
0.0133876
0.0137293
0.0141167
0.0145555
0.0150526
0.015616
0.0162553
0.0169818
0.0178097
0.0187565
0.0198434
0.021097
0.0225496
0.0242404
0.0262173
0.0285403
0.031283
0.0345095
0.0381831
0.0421761
0.0468557
0.0550075
0.0840931
0.0917031
0.217271
0.0119944
0.0121601
0.0123515
0.0125697
0.0128178
0.0130995
0.0134194
0.0137827
0.0141951
0.0146636
0.0151962
0.0158022
0.0164933
0.0172837
0.0181909
0.0192367
0.0204479
0.0218574
0.0235054
0.0254411
0.0277256
0.0304334
0.0336337
0.0373195
0.0414224
0.0462987
0.0545986
0.0798007
0.0880698
0.19837
0.0117345
0.0118891
0.0120665
0.012267
0.0124943
0.0127522
0.0130454
0.0133792
0.0137593
0.0141927
0.0146871
0.0152521
0.015899
0.0166421
0.017499
0.0184917
0.0196474
0.0209997
0.0225898
0.0244685
0.0266987
0.0293578
0.032523
0.0362197
0.0404357
0.0455229
0.0539103
0.0755354
0.0847347
0.180037
0.0114436
0.0115848
0.0117454
0.0119251
0.0121281
0.0123584
0.0126208
0.0129207
0.0132637
0.0136565
0.0141068
0.0146239
0.015219
0.0159063
0.0167032
0.0176317
0.0187195
0.0200005
0.0215171
0.0233219
0.0254806
0.028075
0.0311937
0.0348943
0.0392148
0.0445055
0.0528997
0.0714315
0.0816969
0.163434
0.0111363
0.0112619
0.0114031
0.0115593
0.011735
0.0119349
0.0121635
0.0124262
0.0127285
0.0130768
0.0134786
0.0139429
0.0144806
0.0151053
0.0158344
0.0166896
0.0176985
0.0188957
0.0203242
0.0220384
0.0241076
0.0266195
0.0296757
0.0333645
0.0377677
0.0432306
0.0515474
0.0675325
0.0788421
0.148994
0.0108306
0.0109379
0.0110571
0.0111874
0.0113339
0.0115013
0.0116943
0.0119179
0.0121775
0.0124792
0.01283
0.0132386
0.0137153
0.0142734
0.0149296
0.0157053
0.0166276
0.0177311
0.0190592
0.020668
0.02263
0.0250398
0.0280123
0.0316636
0.0361131
0.0416948
0.0498575
0.0638226
0.0760118
0.136639
0.0105459
0.010632
0.0107266
0.010829
0.0109449
0.0110788
0.0112354
0.0114193
0.0116356
0.0118901
0.0121894
0.0125417
0.0129567
0.0134471
0.0140287
0.0147223
0.0155541
0.0165581
0.0177775
0.0192692
0.0211086
0.0233963
0.0262595
0.0298383
0.0342836
0.0399129
0.0478556
0.0602498
0.0730537
0.126004
0.0103019
0.0103635
0.010431
0.0105039
0.0105884
0.0106886
0.0108088
0.0109533
0.0111271
0.0113354
0.0115846
0.0118822
0.0122373
0.0126618
0.0131706
0.0137834
0.0145253
0.0154287
0.0165361
0.0179041
0.0196095
0.0217573
0.0244839
0.0279486
0.0323274
0.0379191
0.0455801
0.056745
0.069843
0.116629
0.0101179
0.0101515
0.0101893
0.0102318
0.0102844
0.010351
0.0104354
0.0105419
0.0106748
0.0108393
0.0110412
0.0112875
0.0115867
0.0119497
0.0123906
0.0129275
0.013584
0.0143908
0.0153883
0.0166319
0.0181982
0.0201936
0.0227596
0.0260681
0.0303129
0.0357727
0.0430827
0.0532363
0.0662878
0.108075
0.0100109
0.0100134
0.01002
0.0100312
0.010052
0.0100857
0.0101358
0.0102061
0.0103009
0.0104248
0.0105831
0.0107826
0.0110311
0.0113388
0.0117187
0.0121875
0.0127668
0.0134852
0.0143809
0.0155067
0.0169376
0.0187783
0.0211705
0.0242908
0.0283404
0.0335739
0.0404472
0.049685
0.0623632
0.100027
0.0099934
0.00996504
0.00994067
0.00992126
0.00991169
0.00991436
0.0099321
0.00996821
0.0100265
0.0101115
0.0102285
0.0103837
0.0105848
0.0108413
0.0111649
0.0115707
0.012078
0.0127126
0.0135094
0.0145177
0.0158074
0.0174772
0.0196616
0.0225305
0.0262774
0.0311264
0.0374052
0.0457499
0.0578392
0.0925275
0.0100554
0.0100113
0.00996875
0.00992823
0.00989226
0.00986353
0.0098459
0.00984369
0.00986155
0.00990445
0.00997773
0.0100875
0.010241
0.0104469
0.0107156
0.0110602
0.0114975
0.0120503
0.0127508
0.0136438
0.0147933
0.0162907
0.0182618
0.0208668
0.0242865
0.0287141
0.0343394
0.0417058
0.0529104
0.0857591
0.0793946
0.0736299
0.0670019
0.060211
0.0534274
0.046672
0.0400995
0.0338547
0.0280542
0.022787
0.0181083
0.0140407
0.0105813
0.00771317
0.00541494
0.00367023
0.00247358
0.00183396
0.00177165
0.00231304
0.00348266
0.00529129
0.00772472
0.0107365
0.0142455
0.0181375
0.0222727
0.0266132
0.0310405
0.0350408
0.0483328
0.0451976
0.0419643
0.0381569
0.0343002
0.030411
0.0265854
0.0229125
0.0194592
0.0162756
0.0133935
0.0108279
0.00858114
0.00664726
0.0050163
0.00367819
0.00262569
0.00185562
0.00137032
0.0011762
0.0012805
0.00168777
0.00239526
0.00338741
0.00463293
0.00608002
0.00766413
0.00934829
0.0108086
0.012292
0.0383881
0.0359792
0.0335156
0.030472
0.0274112
0.0243689
0.0214177
0.0186143
0.0159941
0.01358
0.0113852
0.00941496
0.00766868
0.0061413
0.00482528
0.00371221
0.00279441
0.00206612
0.00152446
0.00116988
0.00100631
0.00104083
0.00128247
0.00173949
0.00241523
0.0033014
0.00437236
0.00559448
0.00674352
0.00788249
0.032
0.0301983
0.028337
0.0259107
0.023466
0.0210246
0.0186445
0.0163697
0.0142265
0.0122324
0.0103983
0.00873092
0.00723312
0.00590487
0.00474372
0.00374549
0.00290519
0.00221783
0.0016792
0.00128685
0.0010412
0.0009466
0.00101145
0.00124617
0.00165831
0.00224412
0.00298108
0.00383523
0.00458448
0.00531056
0.0269291
0.0254869
0.0239898
0.022088
0.0201998
0.0183099
0.0164474
0.014637
0.0128966
0.0112425
0.00968863
0.00824701
0.00692754
0.00573754
0.00468146
0.00376093
0.00297505
0.00232093
0.00179443
0.00139119
0.00110802
0.000944203
0.000901979
0.000985343
0.00119689
0.00153323
0.00198111
0.00252565
0.00301847
0.00350647
0.0228652
0.0217048
0.0204833
0.0189919
0.0175367
0.0160824
0.0146326
0.0131966
0.0117844
0.0104094
0.00908675
0.00783225
0.00666098
0.00558606
0.00461766
0.0037624
0.00302318
0.00239955
0.00188844
0.00148518
0.00118482
0.000983099
0.000876897
0.000863594
0.000939987
0.00110131
0.00134071
0.00165514
0.00196051
0.00226957
0.0197205
0.018782
0.0177776
0.0165943
0.015452
0.0143138
0.0131676
0.0120133
0.0108543
0.00970009
0.00856494
0.00746575
0.00642022
0.00544499
0.00455403
0.00375758
0.0030616
0.00246797
0.0019751
0.00157896
0.00127401
0.00105396
0.000912033
0.000841
0.000833544
0.00088332
0.000986098
0.00114248
0.00131171
0.00149141
0.0173222
0.0165535
0.015717
0.0147599
0.0138403
0.0129245
0.0119961
0.0110487
0.0100809
0.00909867
0.0081139
0.00714285
0.00620391
0.00531539
0.00449349
0.00375083
0.00309567
0.00253185
0.00205929
0.00167478
0.00137275
0.00114577
0.000985003
0.000880728
0.000823501
0.000806017
0.000824035
0.000877829
0.000952503
0.00104094
0.0155021
0.0148581
0.0141451
0.0133502
0.0125888
0.01183
0.0110579
0.010262
0.00943819
0.00858935
0.00772486
0.00685936
0.0060107
0.00519759
0.00443727
0.0037438
0.003127
0.00259223
0.00214068
0.00176992
0.00147454
0.00124668
0.0010766
0.000953642
0.000867634
0.000810576
0.000777812
0.000767873
0.00077946
0.000807824
0.0141142
0.0135591
0.0129373
0.0122592
0.0116102
0.0109635
0.0103037
0.00961906
0.00890382
0.00815844
0.00739
0.00661127
0.00583893
0.00509124
0.00438566
0.00373689
0.00315571
0.00264855
0.00221755
0.00186094
0.00157365
0.00134783
0.00117364
0.00104032
0.000937693
0.000857433
0.000794335
0.000745518
0.000716321
0.000707474
0.0130466
0.0125556
0.0120017
0.0114076
0.0108397
0.0102738
0.00969567
0.00909321
0.0084599
0.00779463
0.00710265
0.006395
0.00568693
0.00499578
0.00433858
0.00373008
0.00318153
0.00269999
0.00228827
0.00194521
0.00166613
0.00144354
0.00126789
0.00112879
0.00101639
0.000922222
0.00084071
0.000768066
0.000712938
0.000681465
0.0122175
0.0117743
0.0112721
0.0107405
0.0102312
0.0097238
0.00920516
0.00866358
0.00809202
0.00748853
0.00685712
0.0062074
0.0055532
0.00491061
0.00429583
0.00372324
0.00320412
0.00274586
0.00235172
0.00202104
0.00174961
0.00153043
0.00135452
0.00121205
0.00109355
0.000990697
0.000897462
0.000810245
0.000738701
0.000693617
0.0115694
0.0111628
0.0107006
0.0102164
0.00975028
0.00928579
0.00881059
0.00831382
0.00778841
0.00723221
0.00664849
0.00604573
0.00543639
0.00483519
0.00425723
0.00371625
0.00322328
0.00278577
0.00240728
0.00208752
0.00182282
0.00160672
0.00143088
0.0012861
0.00116335
0.00105447
0.000953756
0.000857698
0.000775981
0.000723178
0.011062
0.010684
0.0102538
0.0098062
0.00937256
0.00893913
0.0084952
0.00803075
0.00753927
0.00701889
0.00647249
0.0059076
0.00533534
0.00476905
0.00422265
0.00370909
0.00323897
0.00281964
0.00245478
0.00214443
0.00188537
0.00167167
0.00149562
0.00134873
0.00122246
0.00110926
0.00100379
0.000902588
0.000814978
0.000758469
0.0106657
0.0103111
0.00990713
0.00948793
0.00907855
0.00866747
0.00824523
0.00780343
0.00733642
0.00684287
0.00632547
0.00579087
0.00524895
0.00471172
0.00419198
0.00370184
0.00325136
0.00284766
0.00249443
0.00219197
0.00193739
0.00172526
0.00154849
0.00139928
0.00126979
0.00115334
0.0010448
0.000940905
0.000850418
0.000792924
0.0103591
0.0100239
0.00964159
0.00924446
0.00885281
0.00845729
0.00804936
0.00762279
0.00717312
0.00669942
0.0062043
0.00569362
0.00517614
0.00466273
0.00416515
0.00369465
0.00326074
0.00287022
0.00252671
0.00223061
0.00197934
0.00176791
0.00158982
0.00143798
0.00130548
0.0011864
0.00107588
0.000970927
0.000879588
0.000822844
0.0101266
0.00980714
0.00944227
0.00906204
0.00868285
0.00829737
0.0078986
0.00748169
0.00704392
0.00658465
0.00610626
0.00561402
0.00511584
0.00462158
0.00414205
0.00368773
0.0032675
0.00288781
0.00255215
0.00226093
0.00201182
0.00180027
0.00162034
0.00146569
0.00133031
0.00120902
0.00109725
0.000992233
0.000901277
0.000846109
0.00995561
0.00964885
0.00929762
0.00892983
0.00855892
0.00817946
0.00778606
0.00737483
0.00694469
0.00649532
0.00602895
0.00555044
0.00506703
0.00458776
0.00412259
0.00368123
0.00327199
0.00290091
0.00257128
0.00228351
0.00203547
0.00182304
0.00164091
0.00148347
0.0013453
0.00122209
0.00110951
0.00100499
0.000915062
0.000861592
0.00983622
0.00953942
0.00919882
0.00883989
0.00847402
0.00809763
0.00770677
0.00729831
0.0068722
0.00642885
0.00597038
0.00550144
0.00502879
0.00456079
0.00410663
0.00367529
0.00327451
0.00290991
0.00258456
0.00229886
0.00205086
0.00183689
0.00165225
0.00149196
0.0013513
0.00122645
0.00111327
0.00100955
0.00092095
0.000868919
0.0097602
0.00947126
0.00913903
0.00878653
0.00842335
0.00804785
0.00765719
0.0072492
0.006824
0.00638319
0.00592895
0.00546586
0.00500035
0.00454024
0.00409402
0.00366999
0.00327527
0.00291511
0.00259233
0.00230735
0.00205843
0.00184232
0.00165491
0.00149185
0.00134889
0.00122243
0.0011091
0.00100639
0.000919257
0.000868283
0.00972079
0.00943846
0.00911305
0.00876547
0.0084037
0.00802739
0.00763499
0.00722532
0.00679828
0.00635683
0.00590348
0.00544283
0.00498115
0.0045258
0.00408464
0.00366532
0.0032744
0.00291668
0.00259483
0.00230924
0.00205846
0.00183967
0.00164928
0.00148347
0.00133853
0.00121093
0.00109767
0.000996142
0.000910581
0.000860219
0.00971219
0.00943624
0.00911695
0.00877344
0.00841256
0.00803426
0.00763855
0.00722507
0.00679382
0.00634875
0.00589318
0.0054318
0.00497082
0.00451725
0.00407839
0.00366127
0.0032719
0.0029147
0.00259213
0.00230468
0.00205113
0.00182913
0.00163559
0.00146716
0.00132059
0.00119231
0.00107952
0.000979501
0.000895673
0.000845552
0.00972912
0.00946024
0.00914714
0.00880763
0.00844757
0.00806708
0.00766661
0.00724731
0.00680979
0.00635833
0.00589767
0.00543258
0.00496929
0.00451456
0.00407523
0.00365777
0.0032677
0.00290908
0.00258422
0.00229365
0.00203651
0.00181085
0.00161407
0.00144324
0.00129529
0.00116701
0.00105533
0.000957175
0.000875402
0.000825238
0.00976642
0.00950617
0.00920038
0.00886561
0.00850674
0.00812398
0.00771802
0.00729127
0.00684576
0.00638549
0.00591704
0.00544537
0.00497676
0.00451787
0.00407518
0.00365473
0.0032616
0.00289958
0.00257085
0.00227605
0.0020146
0.00178497
0.00158498
0.00141202
0.00126318
0.00113556
0.00102551
0.000929971
0.000850713
0.000800382
0.00981881
0.00956965
0.0092735
0.00894506
0.00858863
0.0082036
0.0077918
0.00735655
0.00690156
0.00643062
0.00595189
0.00547084
0.00499384
0.00452758
0.00407838
0.00365199
0.00325325
0.00288574
0.0025516
0.00225157
0.0019853
0.00175163
0.00154868
0.00137405
0.00122497
0.0010984
0.000990835
0.00089871
0.000822552
0.00077225
0.00988066
0.00964598
0.00936268
0.00904355
0.00869056
0.00830426
0.00788694
0.00744295
0.00697754
0.00649468
0.00600344
0.00551027
0.0050216
0.00454437
0.00408503
0.00364933
0.00324207
0.00286682
0.00252574
0.00221965
0.00194837
0.00171096
0.00150564
0.00133004
0.0011814
0.00105661
0.000952181
0.000864349
0.000792059
0.000742273
0.00994533
0.00972989
0.00946385
0.00915694
0.00880985
0.00842401
0.00800261
0.00755078
0.00707498
0.00657974
0.00607404
0.00556591
0.00506188
0.00456943
0.00409556
0.00364645
0.00322723
0.0028417
0.00249216
0.00217945
0.00190334
0.00166309
0.00145652
0.00128106
0.0011338
0.00101156
0.000910731
0.000827902
0.000760675
0.000712007
0.0100033
0.00981467
0.00957156
0.00928042
0.00894264
0.00856076
0.0081386
0.00768149
0.0071966
0.00668954
0.00616798
0.00564179
0.00511802
0.00460503
0.004111
0.00364319
0.00320765
0.00280876
0.00244911
0.00212954
0.00184949
0.00160778
0.00140161
0.00122789
0.00108335
0.00096463
0.000868277
0.000790795
0.000728944
0.000682173
0.0100429
0.00989486
0.00968225
0.00941343
0.00909173
0.00872046
0.00830336
0.00784543