/*--------------------------------*- C++ -*----------------------------------*\
  =========                 |
  \\      /  F ield         | OpenFOAM: The Open Source CFD Toolbox
   \\    /   O peration     | Website:  https://openfoam.org
    \\  /    A nd           | Version:  12
     \\/     M anipulation  |
\*---------------------------------------------------------------------------*/
FoamFile
{
    format      ascii;
    class       volVectorField;
    location    "120";
    object      U;
}
// * * * * * * * * * * * * * * * * * * * * * * * * * * * * * * * * * * * * * //

dimensions      [0 1 -1 0 0 0 0];

internalField   nonuniform List<vector> 
6750
(
(0.200065 -0.00312463 0)
(0.200334 -0.00960382 0)
(0.2006 -0.0156091 0)
(0.20083 -0.0211969 0)
(0.200686 -0.0264493 0)
(0.200037 -0.0034817 0)
(0.200271 -0.0101588 0)
(0.200458 -0.016078 0)
(0.200515 -0.0213639 0)
(0.200371 -0.0260886 0)
(0.200026 -0.00364075 0)
(0.200121 -0.0103703 0)
(0.200122 -0.0161456 0)
(0.199978 -0.0211269 0)
(0.199707 -0.025397 0)
(0.20001 -0.00367138 0)
(0.199953 -0.0103049 0)
(0.19976 -0.0158712 0)
(0.199434 -0.0205693 0)
(0.199033 -0.0245203 0)
(0.199996 -0.00360093 0)
(0.199797 -0.0100104 0)
(0.199421 -0.015313 0)
(0.198918 -0.019737 0)
(0.198371 -0.0234299 0)
(0.199984 -0.00344713 0)
(0.199656 -0.00952191 0)
(0.199103 -0.0145053 0)
(0.198418 -0.0186392 0)
(0.197708 -0.0220818 0)
(0.199974 -0.00322452 0)
(0.199523 -0.00886703 0)
(0.198797 -0.0134731 0)
(0.197927 -0.0172847 0)
(0.197038 -0.0204593 0)
(0.199965 -0.00294415 0)
(0.199397 -0.00806858 0)
(0.198503 -0.0122398 0)
(0.197447 -0.0156896 0)
(0.196372 -0.0185667 0)
(0.199956 -0.00261563 0)
(0.19928 -0.00714906 0)
(0.198225 -0.0108333 0)
(0.196991 -0.0138815 0)
(0.195732 -0.0164286 0)
(0.199949 -0.00224869 0)
(0.199174 -0.00613303 0)
(0.197973 -0.00928721 0)
(0.196574 -0.0118991 0)
(0.195145 -0.0140859 0)
(0.199943 -0.00185367 0)
(0.199083 -0.00504721 0)
(0.197756 -0.00763996 0)
(0.196214 -0.00978897 0)
(0.194634 -0.0115914 0)
(0.199938 -0.00144119 0)
(0.19901 -0.00391924 0)
(0.19758 -0.00593202 0)
(0.195923 -0.00760153 0)
(0.194219 -0.00900377 0)
(0.199935 -0.00102156 0)
(0.198956 -0.00277599 0)
(0.197451 -0.00420309 0)
(0.195707 -0.00538673 0)
(0.193911 -0.00638172 0)
(0.199931 -0.000603995 0)
(0.198925 -0.00164219 0)
(0.197368 -0.0024892 0)
(0.195569 -0.00319019 0)
(0.193713 -0.00377962 0)
(0.199921 -0.00020023 0)
(0.19892 -0.000537334 0)
(0.197332 -0.00081897 0)
(0.195505 -0.00104994 0)
(0.193619 -0.00124396 0)
(0.199921 0.000200912 0)
(0.19892 0.000539083 0)
(0.197332 0.000821502 0)
(0.195505 0.00105303 0)
(0.193619 0.00124747 0)
(0.199931 0.000604677 0)
(0.198925 0.00164394 0)
(0.197368 0.00249173 0)
(0.195569 0.00319328 0)
(0.193713 0.00378312 0)
(0.199935 0.00102224 0)
(0.198956 0.00277774 0)
(0.197451 0.00420561 0)
(0.195707 0.00538981 0)
(0.193911 0.0063852 0)
(0.199938 0.00144186 0)
(0.19901 0.00392098 0)
(0.19758 0.00593452 0)
(0.195923 0.00760459 0)
(0.19422 0.00900724 0)
(0.199943 0.00185434 0)
(0.199083 0.00504894 0)
(0.197756 0.00764244 0)
(0.196214 0.00979201 0)
(0.194634 0.0115949 0)
(0.199949 0.00224935 0)
(0.199174 0.00613473 0)
(0.197973 0.00928967 0)
(0.196575 0.0119021 0)
(0.195145 0.0140893 0)
(0.199956 0.00261628 0)
(0.19928 0.00715075 0)
(0.198225 0.0108357 0)
(0.196991 0.0138845 0)
(0.195732 0.0164319 0)
(0.199965 0.00294479 0)
(0.199397 0.00807024 0)
(0.198503 0.0122422 0)
(0.197447 0.0156925 0)
(0.196372 0.01857 0)
(0.199974 0.00322515 0)
(0.199523 0.00886866 0)
(0.198797 0.0134754 0)
(0.197927 0.0172875 0)
(0.197038 0.0204625 0)
(0.199984 0.00344775 0)
(0.199656 0.0095235 0)
(0.199103 0.0145076 0)
(0.198418 0.018642 0)
(0.197708 0.022085 0)
(0.199996 0.00360153 0)
(0.199797 0.010012 0)
(0.199421 0.0153153 0)
(0.198918 0.0197397 0)
(0.198371 0.023433 0)
(0.20001 0.00367196 0)
(0.199953 0.0103064 0)
(0.19976 0.0158734 0)
(0.199434 0.020572 0)
(0.199033 0.0245233 0)
(0.200026 0.00364131 0)
(0.200121 0.0103717 0)
(0.200122 0.0161476 0)
(0.199978 0.0211295 0)
(0.199707 0.0253999 0)
(0.200037 0.00348222 0)
(0.200271 0.0101602 0)
(0.200458 0.01608 0)
(0.200515 0.0213663 0)
(0.200371 0.0260914 0)
(0.200065 0.00312506 0)
(0.200334 0.00960501 0)
(0.2006 0.0156108 0)
(0.20083 0.0211991 0)
(0.200687 0.026452 0)
(0.1985 -0.0382523 0)
(0.196755 -0.0438618 0)
(0.195268 -0.0489989 0)
(0.194233 -0.0536096 2.81026e-22)
(0.193502 -0.0575813 0)
(0.193018 -0.0608525 0)
(0.192769 -0.0633566 -1.924e-20)
(0.192741 -0.0649976 1.94098e-20)
(0.192914 -0.0656583 1.57533e-22)
(0.193217 -0.0652856 1.00867e-20)
(0.193623 -0.0637474 1.62343e-23)
(0.194052 -0.0608937 -1.6215e-23)
(0.194424 -0.056794 -5.19248e-21)
(0.194657 -0.051518 -5.14872e-21)
(0.194675 -0.0452093 -1.20104e-20)
(0.194424 -0.0380783 1.20147e-20)
(0.193873 -0.030385 -4.81658e-21)
(0.193023 -0.0224109 -4.46401e-21)
(0.191902 -0.0144387 3.17259e-22)
(0.190559 -0.00672656 3.65483e-22)
(0.189037 0.000512614 8.5572e-21)
(0.187416 0.00719343 -1.26143e-22)
(0.185791 0.0131699 1.46307e-20)
(0.184216 0.0183809 -1.45013e-20)
(0.182741 0.0228147 0)
(0.181406 0.026491 0)
(0.180242 0.02945 -1.84157e-22)
(0.179274 0.0317431 0)
(0.178522 0.0334238 0)
(0.177981 0.0345171 0)
(0.197608 -0.0416212 0)
(0.196026 -0.04714 0)
(0.194828 -0.0518424 0)
(0.193981 -0.0559401 -2.65611e-22)
(0.19337 -0.0594189 0)
(0.19298 -0.0622381 0)
(0.192809 -0.0643263 1.91555e-20)
(0.192843 -0.065586 -1.9616e-20)
(0.193059 -0.0659088 -1.48254e-22)
(0.193385 -0.0652636 0)
(0.193796 -0.0634815 0)
(0.194204 -0.0604838 -9.52856e-21)
(0.194542 -0.056333 9.55857e-21)
(0.194733 -0.0511004 0)
(0.194707 -0.0449228 -3.20346e-20)
(0.194418 -0.0379943 3.20349e-20)
(0.193842 -0.0305497 0)
(0.19298 -0.0228449 8.65387e-21)
(0.191859 -0.0151325 -8.69773e-21)
(0.190525 -0.00764539 0)
(0.189035 -0.00057461 0)
(0.187451 0.00597648 1.18337e-22)
(0.18584 0.0118869 -1.40763e-20)
(0.184272 0.0170957 1.41824e-20)
(0.182794 0.0215821 0)
(0.181443 0.0253562 0)
(0.180247 0.0284494 1.73412e-22)
(0.179228 0.0309061 0)
(0.178412 0.0327834 0)
(0.177804 0.0341573 0)
(0.196769 -0.0442157 0)
(0.195507 -0.0492222 0)
(0.19449 -0.0535046 0)
(0.193736 -0.057267 1.95526e-20)
(0.193198 -0.0604623 -1.97696e-20)
(0.19288 -0.0630263 2.06367e-20)
(0.192775 -0.0648759 -2.08307e-20)
(0.192866 -0.0659129 3.20909e-22)
(0.193125 -0.0660375 0)
(0.193482 -0.065225 0)
(0.193907 -0.0632858 -3.20109e-22)
(0.194309 -0.060194 0)
(0.194625 -0.056 0)
(0.194776 -0.0507773 -7.57057e-23)
(0.194699 -0.0446609 -5.27325e-20)
(0.19435 -0.0378374 5.27329e-20)
(0.193709 -0.0305303 6.99754e-23)
(0.192783 -0.02298 0)
(0.191603 -0.0154235 0)
(0.190215 -0.00807567 2.53183e-22)
(0.18868 -0.00111296 0)
(0.187059 0.00532954 0)
(0.185419 0.0111698 -2.34609e-22)
(0.183821 0.0163468 -1.36718e-20)
(0.182313 0.0208366 1.35445e-20)
(0.180931 0.0246447 -1.25605e-20)
(0.179699 0.0277965 1.24041e-20)
(0.178635 0.0303288 0)
(0.177771 0.0322987 0)
(0.177182 0.0338497 0)
(0.196028 -0.0465469 0)
(0.19499 -0.0511322 -4.23331e-20)
(0.194076 -0.0550785 2.13458e-20)
(0.193392 -0.0585471 4.43613e-20)
(0.192924 -0.0614723 -4.48956e-20)
(0.192673 -0.0637821 2.23308e-20)
(0.19263 -0.0653911 0)
(0.192779 -0.0662032 7.00835e-22)
(0.193073 -0.0661372 0)
(0.193468 -0.0651465 0)
(0.193908 -0.0630553 1.13551e-20)
(0.19431 -0.0598721 -1.07306e-20)
(0.194606 -0.0556358 0)
(0.194717 -0.0504236 7.9481e-23)
(0.19458 -0.0443684 -7.30206e-20)
(0.194155 -0.0376499 7.3021e-20)
(0.193427 -0.0304806 -7.3465e-23)
(0.192406 -0.0230871 0)
(0.191128 -0.0156914 -8.45601e-21)
(0.189645 -0.00849452 7.89957e-21)
(0.18802 -0.00166256 2.41577e-22)
(0.186319 0.00467801 0)
(0.184608 0.0104437 -4.42202e-22)
(0.182946 0.0155804 0)
(0.181381 0.0200645 1.29195e-20)
(0.179948 0.023899 -2.46198e-20)
(0.17867 0.0271045 2.32732e-20)
(0.177557 0.0297111 1.04529e-20)
(0.176644 0.0317714 -2.15747e-20)
(0.176094 0.0334999 0)
(0.195267 -0.0487668 0)
(0.194364 -0.0529861 4.75106e-20)
(0.193533 -0.0566187 -4.66872e-20)
(0.192919 -0.0597975 0)
(0.192521 -0.0624524 0)
(0.192334 -0.0645076 7.59992e-22)
(0.192348 -0.0658762 0)
(0.192549 -0.0664637 -7.34369e-22)
(0.19288 -0.0662102 1.15915e-20)
(0.19331 -0.0650333 -1.17508e-20)
(0.193761 -0.0627945 -1.16038e-20)
(0.194161 -0.0595154 1.13031e-20)
(0.194432 -0.0552317 3.37217e-22)
(0.194497 -0.0500234 -1.62735e-22)
(0.194293 -0.044022 -9.2919e-20)
(0.193782 -0.0374012 9.29194e-20)
(0.192951 -0.0303639 1.43871e-22)
(0.191818 -0.0231241 -2.75246e-22)
(0.190421 -0.0158904 8.45228e-21)
(0.188819 -0.00885031 -8.14712e-21)
(0.187079 -0.00215936 -8.0027e-21)
(0.18527 0.00406483 7.69427e-21)
(0.18346 0.00974152 4.63425e-22)
(0.181709 0.014821 0)
(0.180064 0.0192815 -3.99693e-22)
(0.178561 0.0231247 0)
(0.177221 0.0263682 0)
(0.176052 0.029036 -2.21541e-20)
(0.175083 0.0311751 2.11873e-20)
(0.174565 0.033072 0)
(0.19441 -0.0508764 4.89001e-20)
(0.193592 -0.0547458 -7.68702e-20)
(0.192836 -0.0580773 2.53261e-20)
(0.192292 -0.0609776 0)
(0.191959 -0.0633722 2.5606e-20)
(0.191831 -0.0651813 -2.50757e-20)
(0.1919 -0.0663173 2.46593e-20)
(0.192149 -0.0666885 -2.55506e-20)
(0.192516 -0.0662501 0)
(0.192972 -0.0648857 -7.72086e-22)
(0.193431 -0.0625028 1.18229e-20)
(0.193822 -0.0591241 -6.15319e-21)
(0.194062 -0.0547864 -9.28458e-22)
(0.194074 -0.0495723 -5.37265e-21)
(0.193795 -0.0436124 -1.12455e-19)
(0.19319 -0.0370762 1.12452e-19)
(0.19225 -0.0301584 -4.79809e-21)
(0.190995 -0.0230625 7.6879e-22)
(0.189469 -0.0159847 -4.03929e-21)
(0.187736 -0.00910065 8.41205e-21)
(0.185866 -0.00255531 4.77269e-22)
(0.183933 0.00354161 0)
(0.182007 0.00911484 -1.40435e-20)
(0.180148 0.0141191 1.43213e-20)
(0.178407 0.0185351 -1.31921e-20)
(0.176817 0.0223648 1.2668e-20)
(0.175402 0.0256235 7.2237e-22)
(0.174165 0.0283311 1.11487e-20)
(0.173132 0.0305281 -3.25671e-20)
(0.172628 0.0325685 2.29949e-20)
(0.193412 -0.0528592 -2.56074e-20)
(0.192646 -0.0563926 2.89247e-20)
(0.191959 -0.0594409 2.8965e-20)
(0.191481 -0.0620783 -2.93704e-20)
(0.191208 -0.0642247 2.74497e-20)
(0.191136 -0.0657973 -2.94984e-20)
(0.191256 -0.0667089 -8.82223e-22)
(0.191549 -0.0668728 0)
(0.191947 -0.0662492 1.30378e-20)
(0.192423 -0.0646984 3.69121e-22)
(0.192884 -0.0621736 3.18115e-22)
(0.193258 -0.058692 -1.2857e-20)
(0.19346 -0.0542934 -5.37056e-21)
(0.193412 -0.0490635 8.49578e-21)
(0.193053 -0.0431331 -1.34095e-19)
(0.19235 -0.036668 1.28872e-19)
(0.191297 -0.0298565 7.17363e-21)
(0.189917 -0.0228929 -5.25718e-21)
(0.188259 -0.0159632 -8.44936e-21)
(0.186389 -0.00923186 -1.17643e-22)
(0.184384 -0.00283412 -1.59886e-22)
(0.18232 0.00312826 7.56879e-21)
(0.180269 0.00858618 0)
(0.178293 0.0134992 3.82276e-22)
(0.176443 0.0178509 -1.18474e-20)
(0.174755 0.0216446 1.25192e-20)
(0.173252 0.0248951 -1.16132e-20)
(0.171936 0.0276188 1.07264e-20)
(0.170829 0.0298511 1.06316e-20)
(0.170317 0.0320031 -1.2047e-20)
(0.192233 -0.0547106 0)
(0.1915 -0.0579265 2.71834e-20)
(0.190876 -0.0607117 -3.31063e-20)
(0.190458 -0.0631009 3.11836e-20)
(0.190242 -0.0650098 -2.9777e-20)
(0.190223 -0.066354 2.73304e-20)
(0.190392 -0.0670477 -2.76462e-20)
(0.190717 -0.0670132 -1.8031e-21)
(0.191146 -0.0661972 -8.83409e-22)
(0.191633 -0.0644639 -8.61446e-22)
(0.192089 -0.0617979 -8.30105e-22)
(0.192439 -0.0582095 4.00097e-22)
(0.192596 -0.0537434 -6.33193e-21)
(0.192482 -0.048489 3.14354e-21)
(0.192039 -0.0425771 -1.46978e-19)
(0.191235 -0.0361713 1.52328e-19)
(0.190067 -0.0294542 2.23138e-21)
(0.188563 -0.0226125 -4.16023e-21)
(0.186774 -0.0158228 2.6398e-22)
(0.184771 -0.0092401 1.01968e-21)
(0.182631 -0.00299024 4.67711e-22)
(0.180435 0.00283281 4.42264e-22)
(0.178256 0.00816622 8.39363e-22)
(0.176159 0.0129745 -1.38704e-20)
(0.174194 0.0172448 1.36256e-20)
(0.172401 0.0209822 -1.19307e-20)
(0.170801 0.0242019 1.10181e-20)
(0.169397 0.0269187 -9.63989e-21)
(0.168207 0.029164 1.15381e-20)
(0.167665 0.0313939 0)
(0.190839 -0.0564319 0)
(0.190126 -0.0593502 1.97396e-21)
(0.189558 -0.0618902 -2.73599e-20)
(0.189197 -0.0640442 4.17353e-22)
(0.189034 -0.0657246 3.18407e-20)
(0.189065 -0.0668471 1.94549e-21)
(0.189279 -0.0673263 1.94576e-21)
(0.189629 -0.0671003 -1.3013e-20)
(0.190084 -0.0660857 1.60801e-20)
(0.190574 -0.064176 -4.93682e-24)
(0.191019 -0.0613658 -6.80713e-21)
(0.191337 -0.0576664 6.84802e-21)
(0.191442 -0.0531271 -2.68461e-21)
(0.191258 -0.0478404 3.09256e-21)
(0.190727 -0.041938 -1.67688e-19)
(0.189822 -0.0355814 1.67688e-19)
(0.188542 -0.0289486 2.39628e-21)
(0.186916 -0.0222195 -2.68401e-21)
(0.185002 -0.0155625 3.92117e-21)
(0.182869 -0.00912371 -5.18466e-21)
(0.1806 -0.00302063 -2.90983e-23)
(0.178276 0.00266031 6.99175e-21)
(0.175972 0.00786249 -7.82896e-21)
(0.173754 0.0125554 -7.7813e-22)
(0.171674 0.0167298 -7.97985e-22)
(0.169772 0.0203934 1.16501e-20)
(0.16807 0.023562 -3.23823e-22)
(0.166571 0.0262502 -1.23307e-20)
(0.165292 0.0284872 0)
(0.164699 0.0307613 0)
(0.189196 -0.0580253 0)
(0.188495 -0.0606647 -3.52413e-20)
(0.187981 -0.062975 4.11224e-22)
(0.187673 -0.0649047 5.24084e-22)
(0.187559 -0.0663642 6.51547e-20)
(0.187636 -0.0672705 -3.37943e-20)
(0.187889 -0.0675405 -2.03345e-21)
(0.188264 -0.0671223 0)
(0.188735 -0.0659068 1.44138e-20)
(0.189222 -0.0638226 -1.4617e-20)
(0.189647 -0.0608664 7.1166e-21)
(0.189927 -0.0570524 -3.99678e-22)
(0.189975 -0.0524349 -6.79452e-21)
(0.189716 -0.0471097 1.9198e-22)
(0.189096 -0.0412096 -1.84912e-19)
(0.18809 -0.0348942 1.84994e-19)
(0.1867 -0.0283375 -1.53454e-22)
(0.18496 -0.0217132 -4.48398e-21)
(0.182926 -0.0151822 2.93508e-22)
(0.180672 -0.00888276 5.14379e-21)
(0.178282 -0.00292452 -7.76285e-21)
(0.175837 0.00261314 7.18231e-21)
(0.173415 0.00767958 0)
(0.171081 0.0122491 8.13278e-22)
(0.168889 0.0163163 -1.17682e-20)
(0.166878 0.0198912 2.35584e-20)
(0.165073 0.0229912 -3.00731e-22)
(0.163476 0.0256315 5.6008e-22)
(0.162104 0.0278405 -1.03209e-20)
(0.161442 0.030127 0)
(0.187272 -0.0594926 -4.53906e-21)
(0.186579 -0.0618701 0)
(0.186116 -0.0639632 -2.21612e-21)
(0.185858 -0.0656773 3.331e-20)
(0.185792 -0.066922 -3.62076e-20)
(0.18591 -0.0676163 3.50005e-20)
(0.186195 -0.0676825 -3.52998e-20)
(0.186593 -0.0670662 -1.66669e-20)
(0.187073 -0.0656494 3.52424e-20)
(0.18755 -0.0633921 2.07508e-22)
(0.18795 -0.0602879 -1.47643e-20)
(0.188185 -0.0563566 7.02781e-21)
(0.188171 -0.0516572 -3.76467e-21)
(0.187834 -0.0462891 -5.04936e-21)
(0.187125 -0.040386 -1.9993e-19)
(0.18602 -0.034106 2.02694e-19)
(0.184525 -0.0276192 -3.5831e-21)
(0.182675 -0.0210936 -2.05314e-21)
(0.180531 -0.0146833 4.45083e-21)
(0.178166 -0.00851904 -8.62221e-21)
(0.175665 -0.00270332 3.3218e-23)
(0.17311 0.00269105 1.28177e-20)
(0.170578 0.00761905 -6.56423e-21)
(0.168135 0.0120596 -1.18346e-20)
(0.165837 0.0160108 1.16707e-20)
(0.163722 0.0194855 -1.08555e-20)
(0.161815 0.0225025 1.12413e-20)
(0.16012 0.025078 -5.96199e-22)
(0.158655 0.0272415 0)
(0.157912 0.0295119 1.42771e-21)
(0.185034 -0.060835 4.72066e-21)
(0.184349 -0.0629649 -4.00265e-20)
(0.183934 -0.0648505 3.83671e-20)
(0.183726 -0.0663558 2.36325e-21)
(0.183705 -0.0673898 2.35404e-21)
(0.183865 -0.0678737 0)
(0.184171 -0.0677409 -2.30347e-21)
(0.184592 -0.0669185 -1.98602e-20)
(0.185072 -0.0653033 3.38306e-20)
(0.185536 -0.062872 -1.82728e-20)
(0.185904 -0.0596184 -1.00022e-21)
(0.186089 -0.0555677 7.29493e-21)
(0.186008 -0.0507844 -7.33413e-21)
(0.185592 -0.0453708 -2.03551e-22)
(0.184794 -0.0394616 -2.16968e-19)
(0.183593 -0.0332135 2.16881e-19)
(0.181998 -0.0267926 1.55658e-22)
(0.180047 -0.0203616 -4.44722e-21)
(0.177801 -0.0140679 4.42351e-21)
(0.175336 -0.00803553 4.99663e-22)
(0.172735 -0.00236009 -6.41278e-21)
(0.170081 0.00289165 1.3609e-20)
(0.167451 0.0076799 -5.5756e-21)
(0.16491 0.0119878 6.80343e-22)
(0.162513 0.015817 0)
(0.160302 0.0191827 -6.7859e-22)
(0.158298 0.0221052 -6.48781e-22)
(0.156507 0.0246022 9.60258e-21)
(0.15495 0.0267054 -8.7973e-21)
(0.154118 0.0289349 -1.48481e-21)
(0.182449 -0.0620518 0)
(0.181774 -0.0639453 -5.60629e-23)
(0.181408 -0.0656303 4.01466e-20)
(0.181248 -0.0669312 -4.09245e-20)
(0.18127 -0.0677574 -3.9709e-20)
(0.181467 -0.0680324 6.20016e-20)
(0.181795 -0.0677003 -1.72905e-20)
(0.182232 -0.0666661 -2.23442e-23)
(0.182708 -0.0648551 -2.30357e-21)
(0.183152 -0.0622488 0)
(0.183482 -0.0588448 -8.07081e-21)
(0.183613 -0.0546742 1.56936e-20)
(0.183463 -0.0498065 -7.60509e-21)
(0.182968 -0.044347 2.12995e-22)
(0.182082 -0.038431 -2.31535e-19)
(0.180789 -0.0322135 2.31622e-19)
(0.179101 -0.0258569 -1.6288e-22)
(0.177058 -0.0195183 -4.40168e-21)
(0.174721 -0.013339 8.3588e-21)
(0.172167 -0.00743615 -3.95229e-21)
(0.169479 -0.00189916 0)
(0.166738 0.00321089 7.44476e-22)
(0.164021 0.00785899 -7.63025e-23)
(0.161394 0.0120322 -5.97026e-21)
(0.15891 0.0157353 1.45297e-20)
(0.156609 0.0189857 -9.77682e-21)
(0.154516 0.0218053 -9.02355e-21)
(0.152635 0.0242132 9.43073e-21)
(0.150989 0.0262439 -6.50582e-23)
(0.150064 0.028412 0)
(0.179483 -0.06314 0)
(0.178821 -0.0648052 -3.96918e-20)
(0.178505 -0.0662933 4.32325e-20)
(0.178393 -0.0673925 3.96497e-20)
(0.178459 -0.0680122 -4.31713e-20)
(0.178689 -0.0680804 -2.31178e-20)
(0.17904 -0.0675432 8.26374e-22)
(0.179486 -0.0662947 2.29394e-20)
(0.179954 -0.064289 4.82093e-21)
(0.180374 -0.0615076 0)
(0.180662 -0.0579535 0)
(0.180735 -0.053664 -6.81252e-21)
(0.180514 -0.0487134 8.34336e-21)
(0.179939 -0.0432098 0)
(0.178968 -0.0372887 -2.44898e-19)
(0.177587 -0.0311032 2.44896e-19)
(0.175814 -0.0248115 0)
(0.173687 -0.0185655 4.05539e-21)
(0.171271 -0.0124998 -4.79708e-21)
(0.168641 -0.00672551 0)
(0.165878 -0.00132586 0)
(0.163065 0.00364331 -1.4719e-21)
(0.160275 0.00815143 4.49352e-21)
(0.157573 0.0121891 -3.01135e-22)
(0.155013 0.0157637 -4.13211e-21)
(0.152634 0.0188948 -8.56949e-21)
(0.150459 0.0216054 8.88245e-21)
(0.148495 0.0239163 8.0258e-21)
(0.146767 0.0258651 -8.39232e-21)
(0.145749 0.0279557 0)
(0.176099 -0.0640943 0)
(0.175457 -0.0655331 0)
(0.175194 -0.0668277 0)
(0.175132 -0.0677263 -4.19356e-20)
(0.175242 -0.0681385 2.05183e-20)
(0.175498 -0.0680026 2.50718e-20)
(0.175875 -0.0672498 2.71789e-21)
(0.176325 -0.0657886 2.04797e-20)
(0.176782 -0.0635887 -1.14602e-21)
(0.177172 -0.0606326 -1.98512e-20)
(0.177415 -0.05693 -1.13111e-21)
(0.177427 -0.0525245 -2.11046e-21)
(0.177135 -0.0474948 -4.68476e-21)
(0.176481 -0.0419512 3.50888e-21)
(0.175428 -0.0360292 -2.56746e-19)
(0.173967 -0.0298796 2.56753e-19)
(0.172115 -0.0236561 2.55382e-21)
(0.169916 -0.0175048 -1.82826e-21)
(0.167432 -0.0115542 9.86213e-22)
(0.164738 -0.00590888 4.13248e-22)
(0.161915 -0.00064646 -5.83298e-21)
(0.159042 0.00418225 6.38597e-22)
(0.156193 0.00855068 5.13927e-21)
(0.153431 0.0124526 -5.08118e-22)
(0.150806 0.0158977 3.53521e-21)
(0.14836 0.0189071 4.00957e-21)
(0.146114 0.021505 -7.84724e-21)
(0.144075 0.0237136 0)
(0.142271 0.0255734 0)
(0.141163 0.0275744 0)
(0.172258 -0.0649022 -4.76058e-20)
(0.171645 -0.0661168 5.01651e-20)
(0.171436 -0.0672188 0)
(0.171427 -0.0679163 -2.35984e-20)
(0.171581 -0.0681195 2.68421e-20)
(0.171867 -0.0677762 2.27085e-20)
(0.172265 -0.0668011 -2.89521e-20)
(0.172717 -0.0651295 0)
(0.173159 -0.0627354 -2.63734e-21)
(0.173518 -0.0596063 0)
(0.173711 -0.0557587 3.35365e-24)
(0.173661 -0.0512422 9.03229e-24)
(0.173298 -0.0461395 1.00014e-21)
(0.172567 -0.0405628 4.52731e-22)
(0.171437 -0.0346471 -2.67218e-19)
(0.169901 -0.0285399 2.67202e-19)
(0.16798 -0.0223904 -3.14318e-22)
(0.165719 -0.0163385 -5.4675e-22)
(0.163179 -0.0105064 -4.21768e-23)
(0.160435 -0.00499227 -4.49778e-23)
(0.157566 0.00013183 0)
(0.154649 0.00481976 6.61534e-22)
(0.151755 0.00904863 0)
(0.148946 0.0128149 -2.73591e-21)
(0.146271 0.0161303 3.72491e-21)
(0.143769 0.0190172 2.67044e-21)
(0.141462 0.0215004 -3.05234e-21)
(0.139358 0.0236034 0)
(0.137488 0.0253697 6.86558e-21)
(0.136293 0.0272727 -7.23734e-21)
(0.167918 -0.065548 0)
(0.167342 -0.0665397 7.00636e-23)
(0.167193 -0.0674483 5.32352e-20)
(0.167242 -0.0679417 -5.08379e-20)
(0.167438 -0.0679349 3.11343e-21)
(0.167758 -0.0673758 -6.10878e-21)
(0.168175 -0.0661755 2.97396e-21)
(0.168627 -0.064295 0)
(0.169052 -0.0617081 0)
(0.169375 -0.0584095 0)
(0.169517 -0.0544226 1.2231e-21)
(0.169404 -0.0498027 -7.45217e-21)
(0.16897 -0.044636 1.20178e-20)
(0.168165 -0.0390361 -5.87891e-21)
(0.166963 -0.0331366 -2.73756e-19)
(0.16536 -0.0270815 2.76816e-19)
(0.16338 -0.0210146 -3.47418e-21)
(0.161068 -0.0150694 6.48771e-21)
(0.158486 -0.00936142 -4.36564e-21)
(0.155707 -0.00398255 -4.01325e-22)
(0.152807 0.00100066 -2.90075e-22)
(0.149861 0.0055465 0)
(0.146937 0.00963542 0)
(0.144094 0.0132663 -4.43021e-22)
(0.141382 0.0164522 6.77791e-22)
(0.138837 0.0192166 -2.47528e-22)
(0.136481 0.0215846 -4.33266e-21)
(0.134322 0.0235806 4.03252e-21)
(0.132394 0.0252508 1.02581e-22)
(0.13112 0.0270505 0)
(0.163032 -0.066009 -5.2504e-20)
(0.162501 -0.0667823 4.86781e-20)
(0.16242 -0.0674925 2.30257e-20)
(0.16253 -0.0677765 -2.679e-20)
(0.162772 -0.0675583 -2.87234e-20)
(0.16313 -0.0667716 2.94506e-20)
(0.163562 -0.0653489 2.44182e-20)
(0.164014 -0.0632599 -2.18381e-20)
(0.164418 -0.0604832 1.25692e-20)
(0.164704 -0.0570208 -1.12872e-20)
(0.164794 -0.0529029 1.09149e-20)
(0.164617 -0.04819 -5.34646e-21)
(0.164114 -0.0429715 -3.91872e-21)
(0.163239 -0.0373616 2.30649e-22)
(0.16197 -0.0314918 -2.81417e-19)
(0.160309 -0.0255017 2.81395e-19)
(0.158281 -0.0195291 -1.45008e-22)
(0.155931 -0.0137008 -2.08782e-21)
(0.153321 -0.00812517 -1.20291e-21)
(0.150521 -0.00288778 3.00619e-21)
(0.147605 0.00195023 -1.68564e-21)
(0.144645 0.00635139 1.77016e-21)
(0.141707 0.0102992 -2.85256e-21)
(0.138846 0.0137944 2.5188e-21)
(0.136111 0.0168514 1.44845e-21)
(0.133536 0.019494 -1.44738e-21)
(0.131143 0.0217472 -1.28576e-21)
(0.128941 0.0236363 1.46004e-21)
(0.126964 0.0252094 4.51563e-21)
(0.125619 0.0269031 -4.32175e-21)
(0.157548 -0.0662589 -3.45065e-21)
(0.157071 -0.0668171 -5.46833e-20)
(0.157066 -0.067321 6.01531e-20)
(0.157242 -0.0673907 0)
(0.157536 -0.0669533 -3.45821e-21)
(0.157931 -0.0659332 0)
(0.15838 -0.0642898 -3.30758e-21)
(0.158829 -0.0619947 2.44605e-20)
(0.159212 -0.0590335 -2.63612e-20)
(0.159457 -0.0554156 1.41126e-21)
(0.159494 -0.0511782 -2.61146e-21)
(0.159254 -0.0463865 -1.18517e-21)
(0.158684 -0.0411323 -5.3981e-22)
(0.157744 -0.0355295 -2.39407e-22)
(0.156416 -0.0297066 -2.84419e-19)
(0.154706 -0.0237981 2.84409e-19)
(0.152641 -0.0179351 1.50514e-22)
(0.150267 -0.012237 2.48691e-22)
(0.147644 -0.00680483 -3.45585e-22)
(0.144839 -0.00171766 0)
(0.141924 0.00296879 -1.86503e-22)
(0.138968 0.00722104 -2.04842e-21)
(0.136031 0.0110253 2.34184e-21)
(0.133168 0.0143841 8.37028e-23)
(0.130424 0.0173124 0)
(0.127833 0.019834 -7.43521e-24)
(0.125416 0.0219738 0)
(0.12318 0.0237569 7.22165e-22)
(0.121165 0.0252334 -6.52418e-22)
(0.119757 0.0268208 1.72612e-22)
(0.151401 -0.0662645 -5.43417e-20)
(0.150991 -0.0666044 5.70896e-20)
(0.151071 -0.0668939 9.65272e-23)
(0.151316 -0.066746 3.21363e-20)
(0.151671 -0.0660759 -5.40133e-20)
(0.152103 -0.0648236 3.25183e-20)
(0.15257 -0.0629612 3.40474e-21)
(0.153015 -0.0604645 3.82169e-23)
(0.153374 -0.0573269 0)
(0.153578 -0.0535657 -1.45741e-21)
(0.15356 -0.0492243 -7.51071e-21)
(0.153259 -0.0443723 1.15439e-20)
(0.152624 -0.0391029 5.37072e-22)
(0.151624 -0.0335288 -1.52384e-21)
(0.150246 -0.0277746 -2.82304e-19)
(0.148498 -0.0219687 2.853e-19)
(0.14641 -0.0162347 -1.35374e-21)
(0.144026 -0.0106838 -2.00008e-22)
(0.141406 -0.00540954 2.62019e-21)
(0.138615 -0.000484224 -2.23681e-21)
(0.135718 0.00404178 1.92601e-22)
(0.132782 0.00813891 0)
(0.129864 0.0117958 1.61937e-22)
(0.127016 0.0150162 -8.61609e-23)
(0.124279 0.0178156 -3.79323e-22)
(0.121686 0.020217 1.28436e-21)
(0.119257 0.0222448 -5.63191e-22)
(0.117 0.0239238 1.57528e-22)
(0.114956 0.025305 1.95748e-22)
(0.113495 0.0267875 -3.74872e-22)
(0.144516 -0.0659783 0)
(0.14419 -0.0660942 0)
(0.144362 -0.066161 -3.37841e-20)
(0.144688 -0.0657876 2.73034e-20)
(0.145106 -0.064878 0)
(0.145578 -0.0633961 -3.65774e-21)
(0.146062 -0.061318 -3.60648e-21)
(0.146501 -0.058627 -3.40003e-21)
(0.146834 -0.0553252 0)
(0.146996 -0.0514373 0)
(0.146923 -0.0470127 -1.3824e-21)
(0.14656 -0.0421241 5.27329e-21)
(0.145866 -0.0368657 -5.79549e-21)
(0.144813 -0.0313476 -2.4047e-22)
(0.143393 -0.0256894 -2.79897e-19)
(0.14162 -0.0200121 2.79963e-19)
(0.139523 -0.0144312 1.34291e-22)
(0.137147 -0.00904911 -9.22899e-22)
(0.134548 -0.00395125 1.28935e-21)
(0.131788 0.000797011 0)
(0.12893 0.00515067 0)
(0.126033 0.00908389 0)
(0.123153 0.0125875 0)
(0.120337 0.0156661 -2.58142e-22)
(0.117624 0.0183351 -1.33237e-22)
(0.115045 0.0206167 0)
(0.112617 0.0225339 -2.56489e-21)
(0.110352 0.0241111 2.08261e-21)
(0.10829 0.0253993 0)
(0.106784 0.0267792 0)
(0.136803 -0.0653362 -3.97963e-21)
(0.136578 -0.0652205 0)
(0.136853 -0.0650603 0)
(0.13727 -0.064447 0)
(0.137755 -0.0632988 0)
(0.138268 -0.06159 0)
(0.138768 -0.0593029 3.68336e-21)
(0.1392 -0.0564299 1.78651e-21)
(0.139504 -0.0529814 -1.27463e-20)
(0.13962 -0.0489897 2.80226e-21)
(0.139492 -0.044509 2.39348e-20)
(0.13907 -0.0396148 -1.60716e-20)
(0.13832 -0.0344006 7.01476e-22)
(0.137222 -0.0289726 4.08065e-21)
(0.135773 -0.0234443 -2.70901e-19)
(0.133988 -0.0179283 2.70858e-19)
(0.131898 -0.0125305 1.5557e-21)
(0.129549 -0.00734426 -5.56151e-22)
(0.126992 -0.0024462 -2.14272e-21)
(0.124285 0.00210542 1.39959e-21)
(0.121486 0.006271 -6.01588e-22)
(0.118651 0.0100283 3.31629e-22)
(0.115829 0.01337 1.92469e-22)
(0.113064 0.0163013 2.63643e-22)
(0.110394 0.018837 0)
(0.107845 0.020998 0)
(0.105435 0.0228055 0)
(0.103175 0.024283 0)
(0.101107 0.0254808 0)
(0.0995657 0.0267614 -3.56216e-22)
(0.12815 -0.0642516 8.19792e-21)
(0.128047 -0.0638981 -3.27257e-20)
(0.128439 -0.0634985 3.40018e-20)
(0.128953 -0.0626396 0)
(0.129507 -0.061256 -3.19707e-20)
(0.130061 -0.0593266 3.69483e-20)
(0.130575 -0.0568428 -3.16365e-20)
(0.130996 -0.0538064 2.67663e-20)
(0.131268 -0.0502366 0)
(0.131336 -0.0461722 1.03771e-20)
(0.131151 -0.0416717 -2.87702e-21)
(0.130673 -0.0368118 -1.55629e-20)
(0.129874 -0.031684 5.29627e-21)
(0.12874 -0.0263894 1.64077e-21)
(0.127274 -0.0210334 -2.5771e-19)
(0.125494 -0.0157192 2.54986e-19)
(0.123432 -0.0105423 9.47152e-22)
(0.12113 -0.00558579 5.54589e-22)
(0.118638 -0.000917191 -1.06764e-21)
(0.116009 0.00341262 9.66016e-22)
(0.113294 0.00736944 -5.35593e-22)
(0.110544 0.0109344 -2.51775e-22)
(0.107805 0.014102 -4.93454e-21)
(0.105114 0.0168775 3.953e-21)
(0.102507 0.0192746 -4.68941e-21)
(0.100008 0.0213125 5.32502e-21)
(0.0976325 0.0230103 0)
(0.0953925 0.0243896 -5.62653e-21)
(0.0933306 0.0254996 5.4475e-21)
(0.0917659 0.0266842 9.59378e-22)
(0.118417 -0.0626016 2.61444e-20)
(0.118456 -0.0620028 -3.40351e-20)
(0.118979 -0.0613524 -3.00168e-20)
(0.119593 -0.0602512 3.5671e-20)
(0.120217 -0.058638 3.74939e-20)
(0.12081 -0.0565007 -7.44734e-20)
(0.121333 -0.0538409 5.22089e-20)
(0.121737 -0.0506699 -1.38245e-20)
(0.121971 -0.0470149 0)
(0.121988 -0.0429207 -1.21036e-20)
(0.121746 -0.0384487 1.08862e-20)
(0.121215 -0.0336754 -6.24162e-22)
(0.120374 -0.0286884 -1.94015e-21)
(0.119216 -0.0235821 2.73116e-21)
(0.117749 -0.0184522 -2.34847e-19)
(0.115995 -0.0133911 2.33655e-19)
(0.113984 -0.00848256 8.56577e-22)
(0.111756 -0.00379861 -4.54164e-22)
(0.109357 0.000602688 -3.20252e-23)
(0.106833 0.00467814 -1.7068e-21)
(0.104232 0.00839899 1.71991e-21)
(0.101596 0.0117496 6.45789e-22)
(0.0989664 0.0147258 3.60829e-21)
(0.0963768 0.0173326 -9.57137e-21)
(0.0938571 0.0195824 1.28371e-20)
(0.0914307 0.021492 -6.32602e-21)
(0.0891108 0.0230778 -8.0568e-21)
(0.0869092 0.0243592 7.79896e-21)
(0.0848691 0.0253832 6.51514e-21)
(0.0832932 0.0264746 -8.12504e-21)
(0.107421 -0.0602051 4.08508e-20)
(0.107625 -0.059351 4.80246e-21)
(0.108281 -0.0584533 -5.71962e-21)
(0.108997 -0.0571163 -3.71269e-20)
(0.109687 -0.0552884 -4.34419e-21)
(0.110312 -0.0529676 6.38929e-21)
(0.110835 -0.0501659 5.73965e-23)
(0.111213 -0.046904 0)
(0.111402 -0.0432163 0)
(0.111364 -0.039152 -1.21468e-20)
(0.111066 -0.0347741 1.38267e-20)
(0.110486 -0.0301568 6.28612e-22)
(0.109613 -0.0253819 0)
(0.108447 -0.0205348 5.18069e-22)
(0.107001 -0.0157001 -2.04708e-19)
(0.105298 -0.0109574 2.03644e-19)
(0.103366 -0.00637776 3.41075e-22)
(0.101245 -0.00202141 0)
(0.0989722 0.00206375 3.22534e-23)
(0.0965896 0.00584234 -2.36941e-21)
(0.0941364 0.00929101 2.21184e-21)
(0.0916498 0.0123972 -3.9259e-22)
(0.0891634 0.0151577 0)
(0.0867069 0.0175769 1.68433e-22)
(0.0843058 0.0196652 1.79639e-21)
(0.0819802 0.0214367 -1.12414e-21)
(0.0797417 0.0229048 1.05484e-20)
(0.0776018 0.024086 -1.4522e-23)
(0.0756036 0.025024 4.34756e-22)
(0.0740323 0.0260232 -8.18249e-21)
(0.0949094 -0.0567813 -3.81832e-20)
(0.0952919 -0.0556805 3.26734e-20)
(0.0960822 -0.0545449 0)
(0.0968916 -0.0529916 -3.40157e-20)
(0.0976354 -0.0509806 4.0014e-20)
(0.0982774 -0.0485204 -1.90515e-20)
(0.0987862 -0.0456331 3.13195e-20)
(0.0991257 -0.0423477 -1.44403e-20)
(0.0992611 -0.0387045 0)
(0.0991632 -0.0347554 0)
(0.0988106 -0.0305625 5.91537e-21)
(0.0981911 -0.0261954 -5.8874e-21)
(0.0973021 -0.0217276 0)
(0.0961509 -0.0172335 1.95437e-22)
(0.0947536 -0.0127841 -1.63752e-19)
(0.0931338 -0.00844498 1.63717e-19)
(0.0913202 -0.00427316 -3.60647e-23)
(0.0893451 -0.000316182 0)
(0.087242 0.00338859 1.21693e-21)
(0.0850442 0.00681377 -1.11883e-21)
(0.0827837 0.00994132 0)
(0.0804902 0.0127615 0)
(0.0781904 0.0152715 6.77888e-21)
(0.0759086 0.0174748 -1.27814e-20)
(0.0736656 0.0193794 5.42174e-21)
(0.0714783 0.0209961 -1.24062e-20)
(0.0693562 0.0223348 1.38369e-20)
(0.0673098 0.0234084 0)
(0.0653816 0.0242567 -1.29912e-20)
(0.0638374 0.0251608 1.02656e-20)
(0.0805244 -0.0518834 -3.74566e-20)
(0.0810835 -0.0505644 3.64335e-20)
(0.0819896 -0.0492226 -3.86184e-20)
(0.0828689 -0.0475007 6.40638e-23)
(0.0836411 -0.0453708 4.22704e-22)
(0.0842754 -0.0428511 5.68856e-20)
(0.084748 -0.0399725 -1.77543e-20)
(0.0850319 -0.0367705 -1.94698e-21)
(0.085103 -0.0332889 1.34123e-20)
(0.0849433 -0.0295798 -2.55094e-20)
(0.0845428 -0.0257016 1.20046e-20)
(0.0838995 -0.0217162 4.62182e-21)
(0.0830194 -0.017686 -5.62319e-21)
(0.0819158 -0.0136716 2.05928e-21)
(0.0806077 -0.00972871 -1.12013e-19)
(0.0791183 -0.0059069 1.11375e-19)
(0.0774734 -0.00224816 -3.00472e-22)
(0.0756995 0.0012133 1.79791e-21)
(0.0738227 0.00445096 -1.25684e-21)
(0.0718681 0.00744547 -5.29361e-21)
(0.069859 0.0101839 1.16223e-20)