/*--------------------------------*- C++ -*----------------------------------*\
  =========                 |
  \\      /  F ield         | OpenFOAM: The Open Source CFD Toolbox
   \\    /   O peration     | Website:  https://openfoam.org
    \\  /    A nd           | Version:  12
     \\/     M anipulation  |
\*---------------------------------------------------------------------------*/
FoamFile
{
    format      ascii;
    class       volVectorField;
    location    "120";
    object      UMean;
}
// * * * * * * * * * * * * * * * * * * * * * * * * * * * * * * * * * * * * * //

dimensions      [0 1 -1 0 0 0 0];

internalField   nonuniform List<vector> 
6750
(
(0.200081 -0.00302654 0)
(0.200412 -0.00906497 0)
(0.20074 -0.0144876 0)
(0.201023 -0.0194149 0)
(0.200973 -0.0239734 0)
(0.200036 -0.00345252 0)
(0.200302 -0.00975867 0)
(0.200541 -0.0151502 0)
(0.200667 -0.0198372 0)
(0.200615 -0.0239435 0)
(0.200025 -0.00362633 0)
(0.200142 -0.0100248 0)
(0.200192 -0.0153219 0)
(0.200119 -0.0197712 0)
(0.199939 -0.0235124 0)
(0.200009 -0.00366639 0)
(0.199971 -0.0100086 0)
(0.199826 -0.0151499 0)
(0.19957 -0.0193786 0)
(0.199255 -0.0228673 0)
(0.199994 -0.00360447 0)
(0.199813 -0.00976026 0)
(0.199483 -0.0146875 0)
(0.199047 -0.0186967 0)
(0.198582 -0.0219815 0)
(0.199982 -0.00345747 0)
(0.199669 -0.00931325 0)
(0.199159 -0.0139667 0)
(0.19854 -0.017735 0)
(0.197907 -0.0208176 0)
(0.199971 -0.00323956 0)
(0.199533 -0.00869471 0)
(0.198848 -0.0130131 0)
(0.198041 -0.0165048 0)
(0.197227 -0.0193638 0)
(0.199961 -0.00296184 0)
(0.199404 -0.00792778 0)
(0.198548 -0.0118512 0)
(0.197553 -0.0150245 0)
(0.196553 -0.0176284 0)
(0.199953 -0.00263412 0)
(0.199284 -0.00703553 0)
(0.198265 -0.01051 0)
(0.19709 -0.0133234 0)
(0.195906 -0.0156381 0)
(0.199945 -0.00226646 0)
(0.199175 -0.00604319 0)
(0.198009 -0.00902396 0)
(0.196668 -0.0114412 0)
(0.195313 -0.0134354 0)
(0.199938 -0.00186953 0)
(0.199082 -0.00497813 0)
(0.197788 -0.00743231 0)
(0.196304 -0.00942545 0)
(0.194798 -0.0110737 0)
(0.199933 -0.0014543 0)
(0.199007 -0.00386855 0)
(0.19761 -0.00577612 0)
(0.196009 -0.0073271 0)
(0.194379 -0.00861206 0)
(0.199929 -0.00103137 0)
(0.198952 -0.00274181 0)
(0.197478 -0.00409561 0)
(0.195791 -0.00519658 0)
(0.194069 -0.00610975 0)
(0.199925 -0.000610214 0)
(0.19892 -0.00162305 0)
(0.197394 -0.00242724 0)
(0.195651 -0.00307989 0)
(0.193868 -0.00362145 0)
(0.199916 -0.000202621 0)
(0.198914 -0.000532216 0)
(0.197357 -0.000800091 0)
(0.195586 -0.00101548 0)
(0.193774 -0.00119402 0)
(0.199916 0.000202107 0)
(0.198914 0.000531059 0)
(0.197357 0.00079849 0)
(0.195586 0.00101357 0)
(0.193774 0.00119187 0)
(0.199925 0.000609699 0)
(0.19892 0.00162189 0)
(0.197394 0.00242564 0)
(0.195651 0.00307799 0)
(0.193868 0.00361931 0)
(0.199929 0.00103085 0)
(0.198952 0.00274066 0)
(0.197478 0.00409402 0)
(0.195791 0.00519469 0)
(0.194069 0.00610762 0)
(0.199933 0.00145379 0)
(0.199007 0.0038674 0)
(0.19761 0.00577454 0)
(0.196009 0.00732522 0)
(0.194379 0.00860995 0)
(0.199938 0.00186903 0)
(0.199082 0.00497699 0)
(0.197788 0.00743075 0)
(0.196304 0.00942359 0)
(0.194798 0.0110716 0)
(0.199945 0.00226597 0)
(0.199175 0.00604207 0)
(0.198009 0.00902242 0)
(0.196668 0.0114394 0)
(0.195313 0.0134333 0)
(0.199953 0.00263364 0)
(0.199284 0.00703442 0)
(0.198265 0.0105085 0)
(0.19709 0.0133216 0)
(0.195906 0.0156361 0)
(0.199961 0.00296137 0)
(0.199404 0.0079267 0)
(0.198548 0.0118497 0)
(0.197553 0.0150227 0)
(0.196552 0.0176264 0)
(0.199971 0.00323912 0)
(0.199533 0.00869365 0)
(0.198848 0.0130116 0)
(0.198041 0.0165031 0)
(0.197227 0.0193618 0)
(0.199982 0.00345705 0)
(0.199669 0.00931223 0)
(0.199159 0.0139653 0)
(0.19854 0.0177333 0)
(0.197907 0.0208155 0)
(0.199994 0.00360407 0)
(0.199813 0.00975927 0)
(0.199483 0.0146861 0)
(0.199047 0.0186949 0)
(0.198582 0.0219795 0)
(0.200009 0.00366602 0)
(0.199971 0.0100076 0)
(0.199826 0.0151485 0)
(0.19957 0.0193768 0)
(0.199255 0.0228652 0)
(0.200025 0.00362599 0)
(0.200142 0.0100239 0)
(0.200192 0.0153205 0)
(0.200119 0.0197693 0)
(0.199939 0.0235102 0)
(0.200036 0.0034522 0)
(0.200302 0.00975776 0)
(0.200541 0.0151488 0)
(0.200667 0.0198353 0)
(0.200615 0.0239412 0)
(0.200081 0.00302626 0)
(0.200412 0.0090641 0)
(0.20074 0.0144862 0)
(0.201022 0.019413 0)
(0.200973 0.023971 0)
(0.199359 -0.0340003 0)
(0.198061 -0.0385961 0)
(0.197013 -0.0427277 0)
(0.196373 -0.0463651 -1.47115e-22)
(0.196008 -0.0494223 0)
(0.19586 -0.0518547 0)
(0.19592 -0.0536097 9.37254e-21)
(0.196174 -0.0546062 -9.4313e-21)
(0.196594 -0.0547477 -6.82285e-23)
(0.197126 -0.0539732 -4.47111e-21)
(0.197736 -0.0521375 7.91154e-23)
(0.198347 -0.0491658 7.4103e-23)
(0.198884 -0.0450906 2.21258e-21)
(0.199265 -0.0399778 2.15299e-21)
(0.199417 -0.0339646 5.02567e-21)
(0.199289 -0.0272531 -5.02741e-21)
(0.198852 -0.0200937 2.09007e-21)
(0.198109 -0.0127588 2.06525e-21)
(0.197093 -0.00551916 3.76827e-23)
(0.195855 0.00138282 6.18274e-23)
(0.194457 0.00775392 -4.2218e-21)
(0.192979 0.0134751 6.66604e-23)
(0.191501 0.0184427 -8.78718e-21)
(0.190087 0.0226176 8.70943e-21)
(0.188787 0.0260038 0)
(0.187644 0.0286344 0)
(0.186686 0.0305601 1.41778e-22)
(0.18594 0.0318437 0)
(0.18544 0.0325614 0)
(0.185148 0.0327619 0)
(0.19868 -0.0368887 0)
(0.197532 -0.0413814 0)
(0.196732 -0.0451315 0)
(0.196252 -0.0483319 1.38955e-22)
(0.195986 -0.0509767 0)
(0.195917 -0.0530362 0)
(0.196045 -0.0544513 -7.71012e-21)
(0.196356 -0.0551376 7.85573e-21)
(0.196817 -0.0550075 6.41756e-23)
(0.197379 -0.0540006 0)
(0.198002 -0.0519705 0)
(0.198608 -0.0488821 4.07059e-21)
(0.199128 -0.0447665 -4.08341e-21)
(0.199484 -0.0396917 0)
(0.199611 -0.0337891 1.40435e-20)
(0.199461 -0.0272459 -1.4041e-20)
(0.199011 -0.0202899 0)
(0.198266 -0.0131688 -3.93145e-21)
(0.197255 -0.00612701 3.94831e-21)
(0.196028 0.000615055 0)
(0.194649 0.00687924 0)
(0.193187 0.0125435 -6.24734e-23)
(0.191711 0.0175147 7.98635e-21)
(0.190287 0.0217497 -8.05277e-21)
(0.188964 0.0252437 0)
(0.187781 0.0280205 0)
(0.186767 0.0301218 -1.3343e-22)
(0.185941 0.0315992 0)
(0.185339 0.0325167 0)
(0.184962 0.0329254 0)
(0.198031 -0.0391256 0)
(0.197154 -0.0431719 0)
(0.196509 -0.0465653 0)
(0.196109 -0.0494878 -6.63881e-21)
(0.195909 -0.0519022 6.71365e-21)
(0.19591 -0.0537573 -6.99202e-21)
(0.196106 -0.0549826 7.05778e-21)
(0.196483 -0.055491 -1.19874e-22)
(0.197001 -0.0552036 0)
(0.197617 -0.0540523 0)
(0.198279 -0.0518989 1.20035e-22)
(0.198912 -0.0487308 0)
(0.199442 -0.0445753 0)
(0.199794 -0.0395032 3.34065e-23)
(0.199901 -0.0336441 2.44922e-20)
(0.19972 -0.027179 -2.44908e-20)
(0.19923 -0.0203252 -3.59714e-23)
(0.198438 -0.0133175 0)
(0.197378 -0.00638632 0)
(0.196102 0.000260891 -1.49767e-22)
(0.194673 0.00645409 0)
(0.193163 0.0120658 0)
(0.19164 0.0170186 1.38581e-22)
(0.190166 0.0212681 9.43446e-21)
(0.18879 0.0248061 -9.34656e-21)
(0.187552 0.0276522 9.89145e-21)
(0.186476 0.0298436 -9.78304e-21)
(0.185579 0.0314276 0)
(0.184895 0.0324693 0)
(0.18447 0.033063 0)
(0.19745 -0.0411258 0)
(0.19676 -0.0448062 1.22604e-20)
(0.196206 -0.0479172 -6.30212e-21)
(0.195872 -0.0505995 -1.2582e-20)
(0.195742 -0.0527975 1.27248e-20)
(0.195816 -0.0544516 -6.33923e-21)
(0.196086 -0.0554879 0)
(0.196538 -0.0558198 -2.01145e-22)
(0.197123 -0.0553791 0)
(0.197807 -0.0540807 0)
(0.198524 -0.0518088 -4.23401e-21)
(0.199197 -0.048563 4.00809e-21)
(0.199752 -0.0443688 0)
(0.200107 -0.0392997 -3.50724e-23)
(0.200197 -0.0334836 3.57809e-20)
(0.199978 -0.0270956 -3.5774e-20)
(0.199431 -0.0203437 3.77612e-23)
(0.198569 -0.0134503 0)
(0.197428 -0.00663317 5.23418e-21)
(0.196065 -8.80805e-05 -4.882e-21)
(0.194547 0.00602407 -1.73168e-22)
(0.192948 0.0115839 0)
(0.191339 0.0165131 3.50388e-22)
(0.189782 0.0207701 0)
(0.188326 0.0243454 -1.08191e-20)
(0.187011 0.0272554 2.11834e-20)
(0.185861 0.0295328 -2.11532e-20)
(0.18489 0.0312195 -1.07958e-20)
(0.184127 0.0323782 2.11753e-20)
(0.183675 0.0331529 0)
(0.196839 -0.0430244 0)
(0.196266 -0.0463934 -1.0899e-20)
(0.195789 -0.0492474 1.07505e-20)
(0.195527 -0.0516982 0)
(0.195472 -0.0536843 0)
(0.195624 -0.0551412 -1.64993e-22)
(0.195972 -0.0559923 0)
(0.196503 -0.0561518 2.11029e-22)
(0.197164 -0.055559 -3.5038e-21)
(0.19792 -0.054112 3.50418e-21)
(0.198696 -0.0517233 4.11918e-21)
(0.199416 -0.0483959 -4.01569e-21)
(0.199996 -0.0441569 -1.37745e-22)
(0.200355 -0.0390825 7.39959e-23)
(0.200425 -0.0332995 4.79451e-20)
(0.200162 -0.0269781 -4.79351e-20)
(0.19955 -0.0203181 -8.77178e-23)
(0.198604 -0.0135317 1.82579e-22)
(0.197365 -0.00682481 -5.91129e-21)
(0.195895 -0.000382161 5.70335e-21)
(0.194265 0.00564456 6.26952e-21)
(0.192554 0.0111427 -6.04462e-21)
(0.190835 0.0160376 -3.67206e-22)
(0.189171 0.0202895 0)
(0.187615 0.0238888 3.94712e-22)
(0.186206 0.0268498 0)
(0.184967 0.0292018 0)
(0.183912 0.0309817 2.37685e-20)
(0.183066 0.0322472 -2.26878e-20)
(0.182585 0.0331914 0)
(0.19614 -0.0448314 -8.28116e-21)
(0.195644 -0.0479119 1.31931e-20)
(0.195243 -0.0505265 -4.46641e-21)
(0.195058 -0.0527611 0)
(0.195082 -0.0545488 -4.89614e-21)
(0.195313 -0.0558199 4.83879e-21)
(0.195745 -0.0564954 -5.44721e-21)
(0.196356 -0.0564916 5.7151e-21)
(0.197096 -0.0557493 0)
(0.197924 -0.0541558 2.12115e-22)
(0.198758 -0.0516511 -4.02122e-21)
(0.199522 -0.0482374 1.84375e-21)
(0.200125 -0.0439452 1.03103e-22)
(0.200484 -0.038853 2.32116e-21)
(0.200529 -0.0330878 6.11009e-20)
(0.200217 -0.0268164 -6.11016e-20)
(0.199535 -0.0202322 3.17585e-21)
(0.198498 -0.0135385 -2.60788e-22)
(0.197154 -0.00693152 3.42022e-21)
(0.195567 -0.000585907 -6.58369e-21)
(0.193814 0.00535527 -4.39628e-22)
(0.191978 0.0107858 0)
(0.190134 0.0156359 1.38424e-20)
(0.18835 0.0198686 -1.41535e-20)
(0.186679 0.0234753 1.41673e-20)
(0.185162 0.026469 -1.35353e-20)
(0.183823 0.0288774 -8.65366e-22)
(0.182674 0.0307331 -1.31682e-20)
(0.181738 0.0320891 3.74518e-20)
(0.181218 0.0331835 -2.60691e-20)
(0.195316 -0.0465419 3.05519e-21)
(0.194878 -0.0493549 -3.45701e-21)
(0.194553 -0.0517519 -3.79105e-21)
(0.194446 -0.0537888 3.85434e-21)
(0.19455 -0.0553928 -4.15886e-21)
(0.194864 -0.0564896 4.5125e-21)
(0.19538 -0.0569986 1.12023e-22)
(0.196071 -0.0568398 0)
(0.196889 -0.0559482 -3.24316e-21)
(0.197785 -0.0542109 -6.07299e-22)
(0.198675 -0.0515893 -6.55177e-22)
(0.199477 -0.0480839 4.22086e-21)
(0.200096 -0.0437292 2.36261e-21)
(0.200448 -0.0386068 -3.89746e-21)
(0.200463 -0.0328441 7.65866e-20)
(0.200098 -0.0266059 -7.36141e-20)
(0.199341 -0.0200807 -4.99311e-21)
(0.198211 -0.0134647 3.81962e-21)
(0.196759 -0.00694568 7.36762e-21)
(0.195053 -0.000689761 7.09917e-22)
(0.193174 0.00516804 6.36362e-22)
(0.191208 0.010528 -7.62284e-21)
(0.189234 0.0153253 0)
(0.187322 0.0195265 -5.30367e-22)
(0.185528 0.0231246 1.43887e-20)
(0.183894 0.0261331 -1.51277e-20)
(0.182447 0.0285783 1.48491e-20)
(0.181195 0.0304905 -1.37484e-20)
(0.180161 0.0319184 -1.29655e-20)
(0.179589 0.0331393 1.47262e-20)
(0.194339 -0.0481625 0)
(0.193948 -0.0507321 -2.30077e-21)
(0.193699 -0.052934 2.85045e-21)
(0.19367 -0.0547903 -3.18919e-21)
(0.193856 -0.056223 3.0225e-21)
(0.194253 -0.0571548 -3.7028e-21)
(0.194854 -0.0575036 3.71175e-21)
(0.19562 -0.0571958 2.89599e-22)
(0.196515 -0.0561523 1.71448e-22)
(0.197473 -0.0542729 2.01869e-22)
(0.198411 -0.0515314 2.46712e-22)
(0.199242 -0.0479278 -1.39664e-22)
(0.199869 -0.0435011 2.80478e-21)
(0.200207 -0.0383365 -1.18407e-21)
(0.200186 -0.0325625 8.90041e-20)
(0.199763 -0.0263424 -9.22359e-20)
(0.198929 -0.019861 -1.98234e-21)
(0.197706 -0.0133088 3.23664e-21)
(0.196147 -0.00686641 -2.56978e-22)
(0.194323 -0.000692366 -1.03564e-21)
(0.192321 0.00508558 -5.45316e-22)
(0.190226 0.010374 -5.53136e-22)
(0.188122 0.015113 -1.11246e-21)
(0.186081 0.019273 1.82877e-20)
(0.184161 0.0228491 -1.81434e-20)
(0.182406 0.025856 1.68322e-20)
(0.180844 0.0283197 -1.55913e-20)
(0.179484 0.0302694 1.41158e-20)
(0.178348 0.0317505 -1.68565e-20)
(0.177711 0.0330724 0)
(0.193184 -0.0497046 0)
(0.192835 -0.052055 -5.11794e-23)
(0.192661 -0.0540817 1.5109e-21)
(0.192711 -0.0557717 3.5265e-22)
(0.192977 -0.0570433 -2.11418e-21)
(0.193456 -0.057817 -2.08634e-22)
(0.194138 -0.0580102 -2.02727e-22)
(0.194978 -0.0575548 2.18591e-21)
(0.195942 -0.0563567 -2.65653e-21)
(0.196954 -0.0543353 -1.38514e-23)
(0.197931 -0.0514687 2.10477e-21)
(0.198782 -0.0477597 -2.11742e-21)
(0.199409 -0.0432521 1.23553e-21)
(0.199724 -0.0380343 -1.4037e-21)
(0.19966 -0.0322365 1.0696e-19)
(0.199176 -0.0260214 -1.06972e-19)
(0.198264 -0.0195707 -2.04118e-21)
(0.196949 -0.01307 2.29215e-21)
(0.195286 -0.00669382 -4.24363e-21)
(0.19335 -0.000593961 5.63175e-21)
(0.191227 0.00510842 -3.27632e-23)
(0.189009 0.0103257 -9.64339e-21)
(0.186779 0.0150031 1.06766e-20)
(0.184612 0.0191145 1.23316e-21)
(0.182568 0.0226579 1.15139e-21)
(0.180693 0.0256494 -1.86854e-20)
(0.179015 0.0281153 6.47466e-23)
(0.177545 0.0300845 2.03146e-20)
(0.176303 0.031601 0)
(0.17559 0.0329984 0)
(0.191822 -0.0511807 0)
(0.191514 -0.0533337 4.332e-22)
(0.191414 -0.0552015 3.61363e-22)
(0.191542 -0.0567367 4.50374e-22)
(0.191888 -0.0578546 -2.83448e-21)
(0.192448 -0.0584749 1.76084e-21)
(0.193206 -0.0585157 2.11818e-22)
(0.194116 -0.0579098 0)
(0.19514 -0.0565541 -2.71318e-21)
(0.196197 -0.054388 2.67704e-21)
(0.197204 -0.0513908 -2.15324e-21)
(0.198063 -0.0475693 -3.87208e-22)
(0.198679 -0.0429721 2.56638e-21)
(0.198964 -0.0376915 -1.00275e-22)
(0.198851 -0.0318595 1.24752e-19)
(0.198302 -0.0256383 -1.24822e-19)
(0.197311 -0.0192073 1.37463e-22)
(0.195906 -0.0127477 4.7471e-21)
(0.194144 -0.00642878 2.49032e-22)
(0.192101 -0.000396043 -6.20633e-21)
(0.189867 0.00523526 1.11505e-20)
(0.187532 0.010383 -1.04579e-20)
(0.185184 0.0149969 0)
(0.182898 0.0190547 -1.28893e-21)
(0.180735 0.0225569 2.10304e-20)
(0.178742 0.0255216 -4.27604e-20)
(0.17695 0.0279759 7.84778e-23)
(0.175369 0.0299487 -9.77963e-22)
(0.174022 0.0314839 1.93906e-20)
(0.173226 0.0329333 0)
(0.190227 -0.0526019 -2.06916e-22)
(0.189959 -0.0545761 0)
(0.189934 -0.0562977 -5.24609e-24)
(0.190139 -0.0576865 -1.81397e-22)
(0.190564 -0.0586555 7.51576e-23)
(0.191201 -0.0591241 -1.72668e-21)
(0.192027 -0.0590138 1.81595e-21)
(0.193003 -0.0582509 2.05118e-21)
(0.194077 -0.0567347 -5.08476e-21)
(0.19517 -0.0544197 -9.66834e-22)
(0.196194 -0.0512855 3.33006e-21)
(0.197052 -0.0473446 -2.67401e-21)
(0.197648 -0.0426503 1.11271e-21)
(0.197894 -0.0372988 2.5911e-21)
(0.197726 -0.0314241 1.4311e-19)
(0.197108 -0.0251883 -1.45085e-19)
(0.196039 -0.0187684 3.4209e-21)
(0.194546 -0.0123419 2.77373e-21)
(0.19269 -0.00607279 -5.18026e-21)
(0.190548 -0.00010121 1.27297e-20)
(0.18821 0.00546318 1.10068e-21)
(0.185769 0.0105433 -2.18029e-20)
(0.183311 0.0150931 1.16324e-20)
(0.180914 0.0190939 2.35167e-20)
(0.178639 0.0225489 -2.31909e-20)
(0.176536 0.0254778 2.27948e-20)
(0.174634 0.027909 -2.39537e-20)
(0.172946 0.0298719 1.41529e-21)
(0.171495 0.0314112 0)
(0.170611 0.0328913 -2.53557e-21)
(0.188368 -0.0539779 2.15281e-22)
(0.188142 -0.0557875 -2.1627e-21)
(0.188191 -0.0573717 2.02851e-21)
(0.188473 -0.0586191 4.73673e-23)
(0.188973 -0.0594412 3.33517e-24)
(0.189683 -0.0597571 0)
(0.190571 -0.0594943 7.53555e-23)
(0.191605 -0.0585664 1.97707e-21)
(0.19272 -0.0568865 -4.30188e-21)
(0.193837 -0.0544166 2.85412e-21)
(0.194869 -0.0511393 2.56856e-22)
(0.195715 -0.0470724 -2.80767e-21)
(0.196279 -0.0422748 2.82276e-21)
(0.196479 -0.0368463 1.14826e-22)
(0.196251 -0.0309228 1.6468e-19)
(0.195563 -0.0246662 -1.64605e-19)
(0.194414 -0.0182515 -1.63433e-22)
(0.192837 -0.0118523 5.70343e-21)
(0.190892 -0.00562777 -5.67275e-21)
(0.188659 0.0002872 -7.46332e-22)
(0.186227 0.0057881 1.20203e-20)
(0.183689 0.0108025 -2.64102e-20)
(0.181133 0.0152884 1.11539e-20)
(0.178634 0.0192302 -1.66323e-21)
(0.176258 0.0226335 0)
(0.174051 0.0255201 1.53663e-21)
(0.172046 0.0279191 1.50665e-21)
(0.170256 0.029861 -2.38915e-20)
(0.168706 0.031392 2.20218e-20)
(0.167734 0.0328847 2.63686e-21)
(0.186214 -0.0553153 0)
(0.186031 -0.05697 -7.84809e-23)
(0.186153 -0.0584217 2.81357e-21)
(0.18651 -0.0595295 -2.87012e-21)
(0.187082 -0.0602038 -1.11879e-21)
(0.18786 -0.0603647 1.00837e-21)
(0.188805 -0.0599429 1.31166e-23)
(0.189887 -0.0588425 -4.30216e-23)
(0.191033 -0.0569943 2.36487e-22)
(0.192165 -0.0543631 0)
(0.193192 -0.0509366 2.35344e-21)
(0.194015 -0.0467386 -5.32688e-21)
(0.19454 -0.0418329 2.97257e-21)
(0.194685 -0.0363233 -1.20153e-22)
(0.194392 -0.0303474 1.87037e-19)
(0.193631 -0.0240668 -1.87115e-19)
(0.192405 -0.017654 1.71018e-22)
(0.190747 -0.0112789 6.24126e-21)
(0.18872 -0.00509583 -1.27915e-20)
(0.186403 0.000765364 6.53665e-21)
(0.183887 0.00620509 0)
(0.181263 0.0111553 -1.81291e-21)
(0.178619 0.0155775 -9.45152e-23)
(0.176031 0.0194592 1.60295e-20)
(0.173562 0.0228081 -4.05351e-20)
(0.171262 0.0256476 2.78044e-20)
(0.169162 0.0280077 2.72262e-20)
(0.167277 0.0299199 -2.83287e-20)
(0.165634 0.0314322 -9.1355e-23)
(0.164575 0.0329226 0)
(0.183728 -0.0566167 0)
(0.18359 -0.0581216 -4.41704e-21)
(0.183785 -0.0594418 4.79166e-21)
(0.184214 -0.0604088 3.00971e-21)
(0.184857 -0.0609316 -3.31864e-21)
(0.185693 -0.0609334 -4.39084e-22)
(0.186692 -0.0603426 8.14692e-22)
(0.187811 -0.0590627 -5.1068e-22)
(0.188979 -0.0570402 -4.59881e-22)
(0.190114 -0.0542416 0)
(0.191126 -0.0506607 0)
(0.191915 -0.0463275 2.76995e-21)
(0.192392 -0.0413111 -3.35688e-21)
(0.192476 -0.0357188 0)
(0.192114 -0.0296895 2.1115e-19)
(0.191278 -0.0233843 -2.11154e-19)
(0.189976 -0.0169731 0)
(0.188242 -0.0106216 -6.40295e-21)
(0.186139 -0.00447928 7.68161e-21)
(0.183748 0.00132905 0)
(0.181158 0.00670855 0)
(0.178459 0.0115952 3.8823e-21)
(0.175739 0.0159541 -1.38685e-20)
(0.173072 0.0197749 -1.80635e-22)
(0.170523 0.0230676 1.35785e-20)
(0.168139 0.0258567 3.05886e-20)
(0.165954 0.0281731 -3.19434e-20)
(0.163981 0.030049 -2.89893e-20)
(0.162251 0.0315346 3.00878e-20)
(0.161109 0.033011 0)
(0.180868 -0.0578806 0)
(0.180778 -0.0592343 0)
(0.181045 -0.0604217 0)
(0.181546 -0.0612438 -4.31461e-21)
(0.182254 -0.0616086 2.65672e-21)
(0.183144 -0.0614454 1.81338e-21)
(0.18419 -0.0606729 8.76112e-23)
(0.185337 -0.0592077 -1.05914e-21)
(0.186516 -0.0570038 -1.16131e-21)
(0.187644 -0.0540321 2.2974e-21)
(0.188629 -0.0502928 2.69245e-22)
(0.189376 -0.0458223 7.3065e-22)
(0.189795 -0.0406948 2.50209e-21)
(0.189813 -0.0350208 -1.90615e-21)
(0.189377 -0.0289403 2.37057e-19)
(0.188467 -0.0226131 -2.37051e-19)
(0.18709 -0.0162061 -3.67166e-21)
(0.185285 -0.00988041 2.54535e-21)
(0.183115 -0.00378068 -1.92037e-21)
(0.180658 0.00197358 -1.03211e-21)
(0.178004 0.00729215 1.69412e-20)
(0.175242 0.012115 5.97244e-22)
(0.172458 0.01641 -1.69817e-20)
(0.169725 0.0201695 2.21041e-21)
(0.167106 0.0234048 -1.48948e-20)
(0.16465 0.0261414 -1.89984e-20)
(0.162388 0.0284108 3.49447e-20)
(0.160335 0.0302456 0)
(0.158527 0.0316985 0)
(0.157307 0.0331521 0)
(0.177589 -0.0590978 -8.02322e-21)
(0.177549 -0.0602967 8.49852e-21)
(0.177888 -0.0613465 0)
(0.178458 -0.0620167 -3.01356e-21)
(0.179228 -0.0622156 3.30264e-21)
(0.180168 -0.0618765 1.44054e-21)
(0.181251 -0.0609112 -1.70895e-21)
(0.182418 -0.0592537 0)
(0.183598 -0.0568618 1.95897e-22)
(0.184708 -0.0537122 0)
(0.185657 -0.0498123 -3.61115e-24)
(0.186351 -0.0452046 3.67407e-24)
(0.186706 -0.0399683 -4.92908e-22)
(0.186651 -0.0342167 -3.01181e-22)
(0.18614 -0.0280903 2.65205e-19)
(0.185155 -0.021747 -2.65226e-19)
(0.183708 -0.01535 4.50778e-22)
(0.181837 -0.0090556 9.81942e-22)
(0.179606 -0.00300296 -4.95501e-23)
(0.177094 0.00269367 -5.3976e-23)
(0.174388 0.00794874 0)
(0.171575 0.012706 -2.27326e-21)
(0.168739 0.0169361 0)
(0.165951 0.0206334 1.42343e-20)
(0.163275 0.0238103 -1.84822e-20)
(0.160757 0.0264931 -1.62002e-20)
(0.158428 0.0287133 1.80574e-20)
(0.156306 0.030504 0)
(0.154426 0.03192 -3.04007e-20)
(0.153135 0.0333444 3.27988e-20)
(0.173838 -0.0602532 0)
(0.17385 -0.0612909 9.93135e-23)
(0.174262 -0.0621953 9.47357e-21)
(0.174901 -0.0627037 -8.88874e-21)
(0.175726 -0.0627273 4.61115e-22)
(0.176713 -0.0621975 -6.35201e-22)
(0.177826 -0.06103 1.5818e-22)
(0.179003 -0.059173 0)
(0.180174 -0.0565872 0)
(0.181256 -0.0532567 0)
(0.182158 -0.0491961 -2.88212e-22)
(0.182791 -0.0444542 3.29958e-21)
(0.183074 -0.0391147 -5.80676e-21)
(0.182943 -0.0332931 3.91969e-21)
(0.182355 -0.0271296 2.93866e-19)
(0.181297 -0.0207797 -2.97166e-19)
(0.179782 -0.0144022 5.72404e-21)
(0.177853 -0.00814775 -1.34986e-20)
(0.175571 -0.00214974 9.94126e-21)
(0.173014 0.00348313 1.17539e-21)
(0.170268 0.00867002 1.28126e-21)
(0.167416 0.0133583 0)
(0.164541 0.0175214 0)
(0.161711 0.021155 2.51496e-21)
(0.158989 0.0242726 -5.13411e-21)
(0.156421 0.0269006 2.60236e-21)
(0.154036 0.0290704 3.95638e-20)
(0.151852 0.030815 -3.61554e-20)
(0.149909 0.0321913 1.39304e-22)
(0.148553 0.0335824 0)
(0.169553 -0.0613227 -1.16189e-20)
(0.16962 -0.0621937 1.08057e-20)
(0.170105 -0.0629402 4.67686e-21)
(0.170812 -0.0632738 -5.39569e-21)
(0.171691 -0.0631104 -4.12199e-21)
(0.17272 -0.0623742 4.1681e-21)
(0.173853 -0.0609971 1.36773e-21)
(0.175033 -0.058933 -1.28178e-21)
(0.176185 -0.056149 -9.63059e-22)
(0.177228 -0.0526369 9.27489e-22)
(0.178074 -0.0484185 -3.15858e-21)
(0.178638 -0.0435487 9.30738e-22)
(0.178844 -0.0381154 1.69426e-21)
(0.178632 -0.0322354 -1.77164e-22)
(0.177967 -0.026048 3.27519e-19)
(0.176838 -0.0197051 -3.27549e-19)
(0.175262 -0.0133603 2.72844e-22)
(0.173282 -0.00715816 5.44366e-21)
(0.170959 -0.0012256 5.49703e-21)
(0.168369 0.00433448 -1.02022e-20)
(0.165595 0.00944605 9.78733e-21)
(0.162719 0.0140601 -9.51979e-21)
(0.159817 0.0181525 2.5714e-20)
(0.156959 0.0217201 -2.23867e-20)
(0.154203 0.024777 -1.97926e-20)
(0.151595 0.0273495 1.93446e-20)
(0.149165 0.0294681 2.16662e-20)
(0.146929 0.0311658 -2.37033e-20)
(0.14493 0.0325009 -4.14964e-20)
(0.143515 0.033856 3.93979e-20)
(0.164665 -0.0622759 -8.96396e-22)
(0.164787 -0.06297 -1.34551e-20)
(0.165349 -0.0635433 1.48496e-20)
(0.166122 -0.0636885 0)
(0.167054 -0.0633221 -6.8804e-22)
(0.168118 -0.0623672 0)
(0.169266 -0.0607722 -3.7762e-22)
(0.170439 -0.0584953 3.05071e-22)
(0.171563 -0.0555111 -2.00884e-22)
(0.172557 -0.0518197 -1.60657e-22)
(0.173338 -0.0474502 6.06864e-22)
(0.173825 -0.0424633 4.52587e-22)
(0.173948 -0.03695 2.94981e-22)
(0.173654 -0.031028 1.83891e-22)
(0.172912 -0.0248345 3.61847e-19)
(0.171716 -0.0185169 -3.61864e-19)
(0.170085 -0.0122226 -2.83203e-22)
(0.168064 -0.00608922 -6.19727e-22)
(0.165712 -0.000236689 1.39809e-21)
(0.163102 0.00523826 0)
(0.160315 0.0102646 1.53194e-21)
(0.157427 0.0147969 2.32732e-20)
(0.154514 0.0188131 -2.41463e-20)
(0.151642 0.0223112 -3.18666e-21)
(0.148865 0.0253054 0)
(0.14623 0.0278212 -3.12167e-21)
(0.143763 0.0298881 0)
(0.141485 0.0315387 -4.27872e-20)
(0.139438 0.0328321 4.45509e-20)
(0.13797 0.0341499 -2.69826e-21)
(0.159086 -0.0630704 -1.5113e-20)
(0.15927 -0.0635724 1.58163e-20)
(0.15991 -0.0639549 1.32447e-22)
(0.16075 -0.0638986 7.4123e-21)
(0.161735 -0.0633105 -1.14317e-20)
(0.162828 -0.0621277 6.25608e-21)
(0.163984 -0.0603074 3.88713e-22)
(0.16514 -0.0578141 6.38777e-23)
(0.166226 -0.0546312 0)
(0.167161 -0.0507669 1.6591e-22)
(0.167868 -0.0462577 2.49127e-21)
(0.168271 -0.0411694 -3.61885e-21)
(0.168307 -0.0355957 -3.24445e-22)
(0.16793 -0.0296539 1.56227e-21)
(0.167113 -0.0234778 3.96571e-19)
(0.165856 -0.0172092 -4.00723e-19)
(0.16418 -0.0109883 2.69597e-21)
(0.162128 -0.00494499 7.08808e-22)
(0.15976 0.000808559 -1.37041e-20)
(0.157146 0.00618218 1.21176e-20)
(0.15436 0.01111 -1.58203e-21)
(0.151478 0.0155502 0)
(0.14857 0.0194827 -3.27646e-21)
(0.145697 0.0229061 3.28023e-21)
(0.142914 0.0258343 -2.34768e-20)
(0.140264 0.0282919 5.59929e-20)
(0.137772 0.0303068 -2.24698e-20)
(0.13546 0.0319103 2.0885e-22)
(0.133372 0.0331622 -4.66597e-20)
(0.131857 0.0344425 4.99669e-20)
(0.152716 -0.0636464 0)
(0.15297 -0.063938 0)
(0.153692 -0.0641142 -9.62697e-21)
(0.154601 -0.0638378 7.89835e-21)
(0.155635 -0.0630135 0)
(0.156753 -0.0615943 -6.80007e-22)
(0.157908 -0.0595434 -5.73393e-22)
(0.15904 -0.0568339 -2.48969e-22)
(0.160076 -0.0534582 0)
(0.160944 -0.0494331 0)
(0.161568 -0.0448019 3.20135e-22)
(0.161881 -0.0396348 -2.5928e-21)
(0.161827 -0.034027 3.04444e-21)
(0.161366 -0.0280943 2.11802e-22)
(0.160478 -0.0219659 4.37189e-19)
(0.159167 -0.0157767 -4.37364e-19)
(0.157456 -0.00965842 -3.33024e-22)
(0.155388 -0.00373211 4.75156e-21)
(0.15302 0.00189829 -6.19554e-21)
(0.150418 0.00714976 0)
(0.147652 0.0119618 0)
(0.144794 0.0162961 0)
(0.141907 0.0201345 0)
(0.139052 0.0234759 -3.80662e-21)
(0.136278 0.0263335 -3.5469e-21)
(0.133625 0.0287303 0)
(0.131121 0.0306922 -3.17315e-20)
(0.128784 0.0322489 2.41761e-20)
(0.126664 0.0334601 0)
(0.125106 0.034703 0)
(0.145433 -0.0639241 -1.39385e-21)
(0.145766 -0.0639862 0)
(0.146575 -0.0639389 0)
(0.147557 -0.063422 0)
(0.148637 -0.0623515 0)
(0.149774 -0.0606893 0)
(0.150921 -0.0584067 5.85616e-22)
(0.152017 -0.0554864 2.04872e-22)
(0.152995 -0.0519304 4.3538e-22)
(0.153784 -0.0477638 1.27106e-21)
(0.154317 -0.0430362 -5.56625e-21)
(0.154535 -0.0378212 6.14367e-21)
(0.154388 -0.0322145 7.986e-22)
(0.153845 -0.0263286 -3.30935e-21)
(0.152893 -0.0202867 4.77988e-19)
(0.151537 -0.0142152 -4.78042e-19)
(0.149805 -0.00823638 -6.23007e-21)
(0.147736 -0.00246117 -6.47645e-22)
(0.145387 0.00301552 2.12285e-20)
(0.142817 0.00811826 -2.76333e-20)
(0.140093 0.0127922 1.23001e-21)
(0.137279 0.0170025 1.54517e-20)
(0.134434 0.0207328 2.06977e-21)
(0.131615 0.023982 3.88772e-21)
(0.128867 0.0267621 0)
(0.126228 0.0290941 0)
(0.123725 0.0310011 0)
(0.121375 0.032511 0)
(0.11923 0.0336824 0)
(0.117635 0.0348884 -3.56335e-21)
(0.137088 -0.0637945 3.01634e-21)
(0.137513 -0.063608 -1.20804e-20)
(0.138417 -0.0633153 1.25742e-20)
(0.139471 -0.0625435 0)
(0.140594 -0.0612196 -8.80455e-21)
(0.141743 -0.0593122 1.01472e-20)
(0.142871 -0.0568031 -5.22484e-21)
(0.143921 -0.0536855 4.47e-21)
(0.144827 -0.0499708 0)
(0.145528 -0.0456921 -1.6748e-21)
(0.145963 -0.0409045 -1.30676e-21)
(0.14608 -0.0356838 6.14177e-21)
(0.145841 -0.0301244 -3.01884e-21)
(0.14522 -0.024334 -2.19368e-21)
(0.144211 -0.0184281 5.22564e-19)
(0.142825 -0.0125231 -5.17242e-19)
(0.141087 -0.00672998 -3.00327e-21)
(0.139038 -0.00114881 -6.50126e-21)
(0.136729 0.0041355 2.30154e-20)
(0.134216 0.00905562 1.14074e-21)
(0.131558 0.0135626 -1.8281e-20)
(0.128812 0.0176252 -2.22175e-21)
(0.126034 0.0212285 -3.96158e-20)
(0.123273 0.0243713 3.21331e-20)
(0.120572 0.0270639 -3.04118e-20)
(0.117966 0.0293246 3.39339e-20)
(0.115478 0.0311735 0)
(0.113129 0.0326356 -3.24582e-20)
(0.11097 0.0337679 3.14253e-20)
(0.109342 0.0349372 7.51295e-21)
(0.127494 -0.0631035 1.068e-20)
(0.128024 -0.0626488 -1.38671e-20)
(0.12903 -0.062092 -1.13683e-20)
(0.130155 -0.0610573 1.37055e-20)
(0.131315 -0.0594772 1.17071e-20)
(0.132466 -0.0573303 -2.10261e-20)
(0.133564 -0.05461 1.21862e-20)
(0.134554 -0.05132 -2.70658e-21)
(0.135377 -0.0474813 0)
(0.135978 -0.043134 1.74841e-21)
(0.136306 -0.0383374 -1.44827e-21)
(0.13632 -0.033168 2.89495e-22)
(0.135989 -0.0277171 1.86286e-21)
(0.135297 -0.0220856 -3.05061e-21)
(0.134244 -0.0163792 5.64685e-19)
(0.132843 -0.0107025 -5.61901e-19)
(0.131122 -0.00515388 -5.25426e-21)
(0.129118 0.000178794 3.60952e-21)
(0.126877 0.00522145 -1.06279e-21)
(0.124449 0.00991542 -2.2263e-20)
(0.121886 0.0142179 1.99326e-20)
(0.11924 0.0181015 4.66233e-21)
(0.116557 0.0215523 2.14086e-20)
(0.113882 0.0245687 -5.21499e-20)
(0.111253 0.027159 6.56932e-20)
(0.108702 0.0293383 -3.19778e-20)
(0.106251 0.031123 -3.65985e-20)
(0.103918 0.0325346 3.54272e-20)
(0.101757 0.0336274 3.30367e-20)
(0.100104 0.0347592 -4.18708e-20)
(0.11641 -0.0616272 1.81908e-20)
(0.117062 -0.0608863 2.18342e-21)
(0.11817 -0.0600576 -3.24275e-21)
(0.119361 -0.0587582 -1.5694e-20)
(0.120548 -0.0569299 -1.51702e-21)
(0.121688 -0.0545629 2.00411e-21)
(0.122739 -0.0516623 8.44993e-23)
(0.123652 -0.0482427 0)
(0.124376 -0.0443338 0)
(0.124866 -0.0399814 1.65769e-21)
(0.125081 -0.0352473 -2.02362e-21)
(0.124989 -0.030207 -2.9156e-22)
(0.124571 -0.024946 0)
(0.12382 -0.0195563 -9.61159e-22)
(0.122739 -0.0141316 6.08925e-19)
(0.121347 -0.00876289 -6.05977e-19)
(0.11967 -0.00353423 -2.21509e-21)
(0.117742 0.00148 0)
(0.115603 0.00621744 1.07036e-21)
(0.113297 0.0106287 -1.70618e-20)
(0.110867 0.0146773 1.66035e-20)
(0.108356 0.0183396 -2.42372e-21)
(0.105805 0.0216029 0)
(0.10325 0.0244646 2.06908e-22)
(0.100726 0.0269306 7.56649e-21)
(0.0982609 0.0290123 -4.83954e-21)
(0.095872 0.0307219 3.97429e-20)
(0.0935782 0.0320768 -3.08118e-23)
(0.0914346 0.0331274 3.73669e-21)
(0.0897669 0.0342189 -3.24372e-20)
(0.103516 -0.0590259 -1.87943e-20)
(0.104299 -0.0579976 1.61569e-20)
(0.105503 -0.0568987 0)
(0.106747 -0.0553482 -1.44661e-20)
(0.107942 -0.0532993 1.71506e-20)
(0.109049 -0.0507544 -6.22802e-21)
(0.110031 -0.0477303 9.14715e-21)
(0.110847 -0.0442515 -3.70482e-21)
(0.111456 -0.040355 0)
(0.111822 -0.0360908 0)
(0.111918 -0.0315209 -2.02475e-21)
(0.111723 -0.0267167 2.20437e-21)
(0.111228 -0.0217557 0)
(0.110434 -0.0167183 -2.89442e-22)
(0.109351 -0.0116837 6.51346e-19)
(0.107999 -0.00672719 -6.51389e-19)
(0.106402 -0.00191694 4.78832e-22)
(0.10459 0.00268744 0)
(0.102598 0.00703612 8.62466e-21)
(0.10046 0.0110895 -8.38674e-21)
(0.09821 0.0148178 0)
(0.0958825 0.018201 0)
(0.0935096 0.0212275 2.52094e-20)
(0.0911215 0.0238934 -4.67322e-20)
(0.0887459 0.0262018 1.90634e-20)
(0.086406 0.02816 -4.10315e-20)
(0.0841171 0.0297754 4.52689e-20)
(0.0818962 0.0310606 0)
(0.0797978 0.0320611 -4.39503e-20)
(0.0781345 0.0331041 3.48779e-20)
(0.0883633 -0.0547637 -2.02487e-20)
(0.0892716 -0.05347 1.96809e-20)
(0.0905489 -0.0521288 -1.98041e-20)
(0.0918158 -0.0503729 1.55225e-21)
(0.0929869 -0.0481681 2.01902e-21)
(0.0940275 -0.0455284 2.33107e-20)
(0.0949101 -0.0424809 -6.54453e-21)
(0.095603 -0.0390585 -4.4864e-22)
(0.0960773 -0.0353032 8.55078e-22)
(0.0963096 -0.0312665 5.01095e-22)
(0.0962847 -0.0270075 -1.40512e-21)
(0.0959953 -0.0225904 -3.42497e-21)
(0.0954422 -0.0180816 5.34643e-21)
(0.094634 -0.0135468 -3.6122e-21)
(0.0935856 -0.0090484 6.95624e-19)
(0.0923168 -0.00464367 -6.92198e-19)
(0.0908504 -0.000383473 -6.44201e-21)
(0.0892111 0.00368845 1.42419e-20)
(0.0874242 0.0075356 -8.46544e-21)
(0.0855149 0.0111285 -2.2132e-20)
(0.083508 0.0144445 4.49092e-20)
(0.0814275 0.0174669 -2.25668e-20)
(0.0792964 0.0201852 -2.82405e-21)