/*--------------------------------*- C++ -*----------------------------------*\
  =========                 |
  \\      /  F ield         | OpenFOAM: The Open Source CFD Toolbox
   \\    /   O peration     | Website:  https://openfoam.org
    \\  /    A nd           | Version:  12
     \\/     M anipulation  |
\*---------------------------------------------------------------------------*/
FoamFile
{
    format      ascii;
    class       volSymmTensorField;
    location    "120";
    object      UPrime2Mean;
}
// * * * * * * * * * * * * * * * * * * * * * * * * * * * * * * * * * * * * * //

dimensions      [0 2 -2 0 0 0 0];

internalField   nonuniform List<symmTensor> 
6750
(
(4.2535e-10 7.2706e-09 0 2.2045e-07 0 0)
(9.91082e-09 1.33562e-07 0 3.00324e-06 0 0)
(3.21329e-08 4.4115e-07 0 9.4196e-06 0 0)
(5.9542e-08 8.83543e-07 0 1.93877e-05 0 0)
(1.44793e-07 1.90481e-06 0 3.24826e-05 0 0)
(5.1903e-11 8.5508e-10 0 1.70396e-07 0 0)
(1.81626e-09 5.70093e-08 0 2.5642e-06 0 0)
(1.26443e-08 2.75748e-07 0 8.18487e-06 0 0)
(4.42003e-08 7.61265e-07 0 1.67865e-05 0 0)
(1.19277e-07 1.64904e-06 0 2.77369e-05 0 0)
(4.26841e-11 9.28382e-10 0 1.55257e-07 0 0)
(1.65724e-09 5.90701e-08 0 2.35172e-06 0 0)
(1.42953e-08 3.09164e-07 0 7.41759e-06 0 0)
(5.52623e-08 8.63239e-07 0 1.48958e-05 0 0)
(1.42855e-07 1.7611e-06 0 2.39288e-05 0 0)
(3.5942e-11 8.48633e-10 0 1.359e-07 0 0)
(2.56752e-09 7.15129e-08 0 2.08657e-06 0 0)
(2.08978e-08 3.62261e-07 0 6.52402e-06 0 0)
(7.50079e-08 9.64866e-07 0 1.29316e-05 0 0)
(1.78144e-07 1.86823e-06 0 2.04984e-05 0 0)
(2.65214e-11 6.48905e-10 0 1.14154e-07 0 0)
(3.5502e-09 7.88387e-08 0 1.79216e-06 0 0)
(2.82385e-08 3.94259e-07 0 5.59321e-06 0 0)
(9.66202e-08 1.02315e-06 0 1.10216e-05 0 0)
(2.18658e-07 1.93008e-06 0 1.73714e-05 0 0)
(1.6417e-11 3.56732e-10 0 9.27467e-08 0 0)
(4.32366e-09 7.99167e-08 0 1.49398e-06 0 0)
(3.50718e-08 4.03617e-07 0 4.67392e-06 0 0)
(1.18422e-07 1.04016e-06 0 9.19356e-06 0 0)
(2.6367e-07 1.94566e-06 0 1.44582e-05 0 0)
(1.05726e-11 6.1496e-11 0 7.31056e-08 0 0)
(4.91336e-09 7.68234e-08 0 1.20749e-06 0 0)
(4.15054e-08 3.96461e-07 0 3.79408e-06 0 0)
(1.40922e-07 1.02481e-06 0 7.46467e-06 0 0)
(3.13912e-07 1.91749e-06 0 1.17323e-05 0 0)
(1.17847e-11 -1.74154e-10 0 5.57839e-08 0 0)
(5.4125e-09 7.12635e-08 0 9.42058e-07 0 0)
(4.7836e-08 3.77056e-07 0 2.9743e-06 0 0)
(1.64469e-07 9.81358e-07 0 5.85807e-06 0 0)
(3.69048e-07 1.84317e-06 0 9.2081e-06 0 0)
(2.03062e-11 -3.28206e-10 0 4.09197e-08 0 0)
(5.87945e-09 6.41192e-08 0 7.03966e-07 0 0)
(5.41236e-08 3.47335e-07 0 2.23267e-06 0 0)
(1.88603e-07 9.10774e-07 0 4.40324e-06 0 0)
(4.27025e-07 1.71865e-06 0 6.9238e-06 0 0)
(3.45249e-11 -4.02364e-10 0 2.84998e-08 0 0)
(6.32863e-09 5.57919e-08 0 4.97766e-07 0 0)
(6.01944e-08 3.08327e-07 0 1.585e-06 0 0)
(2.12208e-07 8.13844e-07 0 3.12995e-06 0 0)
(4.84536e-07 1.54255e-06 0 4.92371e-06 0 0)
(5.17219e-11 -4.08906e-10 0 1.84684e-08 0 0)
(6.74581e-09 4.65135e-08 0 3.2662e-07 0 0)
(6.57494e-08 2.61186e-07 0 1.0437e-06 0 0)
(2.33858e-07 6.93016e-07 0 2.06341e-06 0 0)
(5.37701e-07 1.31839e-06 0 3.24725e-06 0 0)
(6.89033e-11 -3.63212e-10 0 1.07486e-08 0 0)
(7.10069e-09 3.6498e-08 0 1.92213e-07 0 0)
(7.04551e-08 2.07536e-07 0 6.16284e-07 0 0)
(2.52193e-07 5.52814e-07 0 1.21971e-06 0 0)
(5.82946e-07 1.05467e-06 0 1.92016e-06 0 0)
(8.29763e-11 -2.78336e-10 0 5.23196e-09 0 0)
(7.3531e-09 2.60009e-08 0 9.46786e-08 0 0)
(7.40207e-08 1.49463e-07 0 3.04773e-07 0 0)
(2.6615e-07 3.99288e-07 0 6.0379e-07 0 0)
(6.17614e-07 7.63373e-07 0 9.50801e-07 0 0)
(8.88735e-11 -1.61735e-10 0 1.76875e-09 0 0)
(7.44313e-09 1.53304e-08 0 3.26492e-08 0 0)
(7.62443e-08 8.93075e-08 0 1.05761e-07 0 0)
(2.75131e-07 2.39158e-07 0 2.09724e-07 0 0)
(6.40279e-07 4.57949e-07 0 3.3034e-07 0 0)
(7.69967e-11 -4.17625e-11 0 1.90458e-10 0 0)
(7.23274e-09 4.86134e-09 0 3.39947e-09 0 0)
(7.70723e-08 2.93323e-08 0 1.12944e-08 0 0)
(2.79146e-07 7.89039e-08 0 2.25019e-08 0 0)
(6.50909e-07 1.51397e-07 0 3.5513e-08 0 0)
(7.704e-11 3.16863e-11 0 2.40085e-10 0 0)
(7.23415e-09 -5.02051e-09 0 3.61723e-09 0 0)
(7.70699e-08 -2.98324e-08 0 1.17e-08 0 0)
(2.79138e-07 -7.97366e-08 0 2.30252e-08 0 0)
(6.50885e-07 -1.52484e-07 0 3.61e-08 0 0)
(8.86562e-11 1.54246e-10 0 1.91835e-09 0 0)
(7.4399e-09 -1.54898e-08 0 3.33215e-08 0 0)
(7.62331e-08 -8.98011e-08 0 1.06996e-07 0 0)
(2.75101e-07 -2.39974e-07 0 2.11311e-07 0 0)
(6.40203e-07 -4.59003e-07 0 3.32118e-07 0 0)
(8.25611e-11 2.7319e-10 0 5.48275e-09 0 0)
(7.34661e-09 -2.61511e-08 0 9.58179e-08 0 0)
(7.40005e-08 -1.49936e-07 0 3.06858e-07 0 0)
(2.66097e-07 -4.00063e-07 0 6.06462e-07 0 0)
(6.17486e-07 -7.64352e-07 0 9.53782e-07 0 0)
(6.84096e-11 3.61139e-10 0 1.10951e-08 0 0)
(7.09186e-09 -3.66323e-08 0 1.93822e-07 0 0)
(7.0428e-08 -2.07973e-07 0 6.19223e-07 0 0)
(2.52123e-07 -5.53526e-07 0 1.22345e-06 0 0)
(5.82773e-07 -1.05553e-06 0 1.92432e-06 0 0)
(5.12687e-11 4.10608e-10 0 1.89007e-08 0 0)
(6.736e-09 -4.66273e-08 0 3.2869e-07 0 0)
(6.57195e-08 -2.61581e-07 0 1.04748e-06 0 0)
(2.33781e-07 -6.9365e-07 0 2.06821e-06 0 0)
(5.37491e-07 -1.31911e-06 0 3.25253e-06 0 0)
(3.42449e-11 4.0804e-10 0 2.90041e-08 0 0)
(6.31905e-09 -5.58824e-08 0 5.00286e-07 0 0)
(6.01652e-08 -3.08675e-07 0 1.58961e-06 0 0)
(2.12128e-07 -8.14389e-07 0 3.13574e-06 0 0)
(4.84291e-07 -1.54308e-06 0 4.93001e-06 0 0)
(2.03278e-11 3.37752e-10 0 4.14791e-08 0 0)
(5.87003e-09 -6.41785e-08 0 7.06911e-07 0 0)
(5.40912e-08 -3.47612e-07 0 2.23805e-06 0 0)
(1.88519e-07 -9.112e-07 0 4.40989e-06 0 0)
(4.26764e-07 -1.71895e-06 0 6.93082e-06 0 0)
(1.21839e-11 1.87425e-10 0 5.63771e-08 0 0)
(5.4014e-09 -7.12715e-08 0 9.45371e-07 0 0)
(4.77888e-08 -3.772e-07 0 2.9804e-06 0 0)
(1.64355e-07 -9.8157e-07 0 5.86548e-06 0 0)
(3.68774e-07 -1.84323e-06 0 9.21564e-06 0 0)
(1.13248e-11 -4.56164e-11 0 7.37085e-08 0 0)
(4.9016e-09 -7.67775e-08 0 1.21108e-06 0 0)
(4.145e-08 -3.96466e-07 0 3.80082e-06 0 0)
(1.40806e-07 -1.02489e-06 0 7.47312e-06 0 0)
(3.13645e-07 -1.91746e-06 0 1.17416e-05 0 0)
(1.7443e-11 -3.40674e-10 0 9.33399e-08 0 0)
(4.31425e-09 -7.98403e-08 0 1.49777e-06 0 0)
(3.50274e-08 -4.03574e-07 0 4.68123e-06 0 0)
(1.18347e-07 -1.04028e-06 0 9.20306e-06 0 0)
(2.63455e-07 -1.9457e-06 0 1.44692e-05 0 0)
(2.76783e-11 -6.33911e-10 0 1.14725e-07 0 0)
(3.54288e-09 -7.87369e-08 0 1.7961e-06 0 0)
(2.82026e-08 -3.94172e-07 0 5.60117e-06 0 0)
(9.65607e-08 -1.02326e-06 0 1.10325e-05 0 0)
(2.18458e-07 -1.93008e-06 0 1.73847e-05 0 0)
(3.70312e-11 -8.36177e-10 0 1.36441e-07 0 0)
(2.56212e-09 -7.13981e-08 0 2.0906e-06 0 0)
(2.08699e-08 -3.62151e-07 0 6.53255e-06 0 0)
(7.49641e-08 -9.6503e-07 0 1.29442e-05 0 0)
(1.77955e-07 -1.86813e-06 0 2.05145e-05 0 0)
(4.34422e-11 -9.18756e-10 0 1.55765e-07 0 0)
(1.65202e-09 -5.8945e-08 0 2.35575e-06 0 0)
(1.42707e-08 -3.09031e-07 0 7.42662e-06 0 0)
(5.52114e-08 -8.63303e-07 0 1.491e-05 0 0)
(1.42659e-07 -1.76059e-06 0 2.39481e-05 0 0)
(5.21841e-11 -8.49905e-10 0 1.70863e-07 0 0)
(1.80891e-09 -5.68901e-08 0 2.56814e-06 0 0)
(1.26169e-08 -2.75589e-07 0 8.1942e-06 0 0)
(4.41391e-08 -7.6118e-07 0 1.68022e-05 0 0)
(1.19093e-07 -1.64785e-06 0 2.77597e-05 0 0)
(4.24308e-10 -7.26147e-09 0 2.20844e-07 0 0)
(9.8926e-09 -1.33389e-07 0 3.00676e-06 0 0)
(3.20867e-08 -4.40762e-07 0 9.42845e-06 0 0)
(5.94632e-08 -8.82696e-07 0 1.94035e-05 0 0)
(1.44598e-07 -1.90219e-06 0 3.25068e-05 0 0)
(1.62962e-06 1.07193e-05 0 7.68566e-05 0 0)
(3.80669e-06 1.95702e-05 0 0.000107076 0 0)
(6.66003e-06 2.97159e-05 0 0.000139574 0 0)
(9.68013e-06 3.99474e-05 -5.67356e-25 0.000172694 -1.04846e-24 2.21538e-42)
(1.27731e-05 4.99998e-05 0 0.00020444 0 0)
(1.58555e-05 5.95545e-05 0 0.000233193 0 0)
(1.88185e-05 6.82259e-05 6.02119e-23 0.000257519 1.3355e-22 8.48679e-39)
(2.15811e-05 7.56703e-05 -6.67146e-23 0.000276044 -1.48973e-22 8.6371e-39)
(2.40585e-05 8.15711e-05 -5.71208e-25 0.000287505 -1.29538e-24 4.82822e-43)
(2.63856e-05 8.61083e-05 -4.02065e-23 0.000291846 -9.23019e-23 1.81115e-39)
(2.84209e-05 8.87929e-05 -1.06263e-26 0.000287545 -6.22855e-25 3.93931e-42)
(3.02512e-05 8.95659e-05 1.63837e-25 0.000274043 -6.89912e-26 4.6447e-42)
(3.19092e-05 8.85789e-05 2.41834e-23 0.000252835 5.37329e-23 4.28439e-40)
(3.34537e-05 8.59403e-05 2.488e-23 0.000225377 5.44398e-23 3.44962e-40)
(3.49449e-05 8.17773e-05 5.98535e-23 0.000193701 1.28076e-22 1.51671e-39)
(3.64405e-05 7.62087e-05 -6.16853e-23 0.000160191 -1.28604e-22 1.51689e-39)
(3.80054e-05 6.93409e-05 2.53202e-23 0.000127291 5.10077e-23 1.97691e-40)
(3.97052e-05 6.12558e-05 2.39874e-23 9.71998e-05 4.63302e-23 1.37239e-40)
(4.16099e-05 5.20464e-05 -1.53484e-24 7.16914e-05 -2.90067e-24 4.89947e-42)
(4.38085e-05 4.18407e-05 -1.65016e-24 5.19384e-05 -2.80135e-24 4.23362e-42)
(4.64371e-05 3.08199e-05 -4.86694e-23 3.84155e-05 -7.73225e-23 4.74753e-40)
(4.94874e-05 1.90039e-05 7.46886e-25 3.07076e-05 1.04657e-24 9.29153e-44)
(5.28618e-05 6.67215e-06 -8.98991e-23 2.84969e-05 -1.11811e-22 1.16877e-39)
(5.65359e-05 -5.85399e-06 9.1413e-23 3.08829e-05 9.48326e-23 1.14817e-39)
(6.04366e-05 -1.82528e-05 0 3.67323e-05 0 0)
(6.44412e-05 -3.02098e-05 0 4.48505e-05 0 0)
(6.84048e-05 -4.14302e-05 1.40982e-24 5.41102e-05 5.43205e-25 1.77428e-43)
(7.22164e-05 -5.16316e-05 0 6.35237e-05 0 0)
(7.58969e-05 -6.05113e-05 0 7.22217e-05 0 0)
(7.90328e-05 -6.77638e-05 0 7.93508e-05 0 0)
(2.55171e-06 1.47423e-05 0 9.17664e-05 0 0)
(4.99509e-06 2.41702e-05 0 0.000123931 0 0)
(7.78532e-06 3.39339e-05 0 0.000155532 0 0)
(1.07082e-05 4.363e-05 5.64221e-25 0.00018622 1.04133e-24 1.97015e-42)
(1.37329e-05 5.31336e-05 0 0.000214821 0 0)
(1.67631e-05 6.21165e-05 0 0.000240139 0 0)
(1.97043e-05 7.02371e-05 -5.74429e-23 0.000260968 -1.23101e-22 7.3266e-39)
(2.24905e-05 7.72015e-05 6.45357e-23 0.00027615 1.38266e-22 7.67352e-39)
(2.50764e-05 8.27987e-05 5.49984e-25 0.000284757 1.1956e-24 4.25458e-43)
(2.75601e-05 8.7158e-05 0 0.000286893 0 0)
(2.98214e-05 8.97777e-05 0 0.000280841 0 0)
(3.19631e-05 9.07243e-05 4.3239e-23 0.0002668 9.20071e-23 1.31289e-39)
(3.39643e-05 9.00374e-05 -4.57102e-23 0.000246041 -9.54049e-23 1.32116e-39)
(3.58662e-05 8.77896e-05 0 0.000219885 0 0)
(3.76967e-05 8.40554e-05 1.68338e-22 0.000190111 3.39611e-22 1.12051e-38)
(3.94812e-05 7.89086e-05 -1.73878e-22 0.000158757 -3.42759e-22 1.11973e-38)
(4.12564e-05 7.24265e-05 0 0.000127895 0 0)
(4.30722e-05 6.46934e-05 -4.9378e-23 9.94247e-05 -9.10481e-23 5.9612e-40)
(4.49932e-05 5.58089e-05 5.04374e-23 7.48829e-05 8.90643e-23 6.02026e-40)
(4.71029e-05 4.59101e-05 0 5.53419e-05 0 0)
(4.94611e-05 3.51284e-05 0 4.13003e-05 0 0)
(5.2148e-05 2.35994e-05 -7.28728e-25 3.26215e-05 -1.02402e-24 8.17727e-44)
(5.51644e-05 1.15766e-05 9.07392e-23 2.90443e-05 1.10461e-22 1.06311e-39)
(5.84353e-05 -6.91713e-07 -9.33531e-23 2.98893e-05 -9.65763e-23 1.08115e-39)
(6.19185e-05 -1.29065e-05 0 3.42467e-05 0 0)
(6.55278e-05 -2.47788e-05 0 4.10993e-05 0 0)
(6.91403e-05 -3.60445e-05 -1.34039e-24 4.94398e-05 -6.56571e-25 1.57453e-43)
(7.26301e-05 -4.64672e-05 0 5.83545e-05 0 0)
(7.60101e-05 -5.58368e-05 0 6.70665e-05 0 0)
(7.91378e-05 -6.41702e-05 0 7.5116e-05 0 0)
(3.55185e-06 1.85403e-05 0 0.000103386 0 0)
(5.93807e-06 2.74436e-05 0 0.000134007 0 0)
(8.68701e-06 3.67807e-05 0 0.000163578 0 0)
(1.16438e-05 4.62218e-05 -3.82938e-23 0.000192119 -7.10731e-23 7.9819e-39)
(1.47297e-05 5.54981e-05 4.47954e-23 0.00021852 8.55503e-23 8.17078e-39)
(1.78506e-05 6.42726e-05 -5.38782e-23 0.000241603 -1.07515e-22 8.15562e-39)
(2.09427e-05 7.22557e-05 6.07353e-23 0.000260226 1.2118e-22 8.30975e-39)
(2.39543e-05 7.91815e-05 -1.0801e-24 0.000273345 -2.19042e-24 1.92109e-42)
(2.68885e-05 8.49357e-05 0 0.000280302 0 0)
(2.97865e-05 8.95277e-05 0 0.000281108 0 0)
(3.25768e-05 9.25048e-05 1.37975e-24 0.000274129 2.68097e-24 1.5694e-42)
(3.53294e-05 9.3938e-05 0 0.000260006 0 0)
(3.79881e-05 9.37805e-05 0 0.000239807 0 0)
(4.05606e-05 9.20516e-05 4.14018e-25 0.000214768 7.63078e-25 7.43868e-44)
(4.30291e-05 8.87658e-05 3.07599e-22 0.000186502 5.57655e-22 3.19264e-38)
(4.53748e-05 8.39518e-05 -3.18986e-22 0.000156821 -5.64736e-22 3.19259e-38)
(4.75933e-05 7.76601e-05 -4.4915e-25 0.000127561 -7.7553e-25 5.16031e-44)
(4.97052e-05 6.99705e-05 0 0.0001004 0 0)
(5.17614e-05 6.09991e-05 0 7.67144e-05 0 0)
(5.38433e-05 5.09041e-05 -1.78542e-24 5.74799e-05 -2.70872e-24 5.35911e-43)
(5.60433e-05 3.98757e-05 0 4.32164e-05 0 0)
(5.84319e-05 2.8135e-05 0 3.40368e-05 0 0)
(6.10367e-05 1.58871e-05 1.66899e-24 2.96071e-05 1.93205e-24 3.2415e-43)
(6.38524e-05 3.41213e-06 1.04627e-22 2.94065e-05 1.03554e-22 1.09902e-39)
(6.68525e-05 -9.00064e-06 -1.05316e-22 3.26776e-05 -8.66826e-23 1.07864e-39)
(6.99816e-05 -2.10732e-05 1.04159e-22 3.85371e-05 6.77998e-23 8.90667e-40)
(7.31555e-05 -3.25516e-05 -1.0528e-22 4.60757e-05 -5.01016e-23 8.68056e-40)
(7.62681e-05 -4.32088e-05 0 5.44301e-05 0 0)
(7.92394e-05 -5.28417e-05 0 6.28462e-05 0 0)
(8.15553e-05 -6.15707e-05 0 7.11385e-05 0 0)
(4.5464e-06 2.21345e-05 0 0.000114228 0 0)
(6.89614e-06 3.06596e-05 5.48238e-23 0.000143379 8.60103e-23 3.71637e-38)
(9.71672e-06 3.98495e-05 -3.37879e-23 0.000171186 -5.56553e-23 9.82314e-39)
(1.27978e-05 4.91996e-05 -8.46451e-23 0.000197703 -1.52132e-22 3.85611e-38)
(1.60408e-05 5.83791e-05 1.00215e-22 0.000221882 1.8581e-22 3.80137e-38)
(1.93835e-05 6.71047e-05 -5.70433e-23 0.000242641 -1.06453e-22 9.22204e-39)
(2.27918e-05 7.5135e-05 0 0.000258963 0 0)
(2.62193e-05 8.22142e-05 -2.27321e-24 0.000269956 -4.18064e-24 8.13817e-42)
(2.97404e-05 8.83522e-05 0 0.000275292 0 0)
(3.32948e-05 9.3334e-05 0 0.000274655 0 0)
(3.68973e-05 9.68472e-05 -5.29679e-23 0.000266823 -9.30829e-23 1.90034e-39)
(4.05455e-05 9.88893e-05 5.41306e-23 0.000252654 9.18585e-23 1.69438e-39)
(4.41625e-05 9.93587e-05 0 0.00023305 0 0)
(4.77067e-05 9.82146e-05 -4.82439e-25 0.00020917 -7.87902e-25 8.1991e-44)
(5.1102e-05 9.54138e-05 4.80409e-22 0.000182459 7.68856e-22 6.41492e-38)
(5.42717e-05 9.09393e-05 -5.00175e-22 0.000154514 -7.80865e-22 6.4147e-38)
(5.71608e-05 8.48145e-05 5.2767e-25 0.000126935 8.05543e-25 5.68777e-44)
(5.97533e-05 7.71131e-05 0 0.000101187 0 0)
(6.20821e-05 6.79656e-05 6.71502e-23 7.84884e-05 9.59135e-23 6.61888e-40)
(6.42275e-05 5.75588e-05 -6.33375e-23 5.97325e-05 -8.66577e-23 5.79098e-40)
(6.63022e-05 4.6125e-05 -2.06739e-24 4.54395e-05 -2.64515e-24 5.20714e-43)
(6.84035e-05 3.39125e-05 0 3.57578e-05 0 0)
(7.0596e-05 2.11873e-05 3.97479e-24 3.05157e-05 4.21423e-24 1.54763e-42)
(7.29201e-05 8.24204e-06 0 2.92936e-05 0 0)
(7.53823e-05 -4.62845e-06 -1.19084e-22 3.14688e-05 -9.43251e-23 1.09773e-39)
(7.79558e-05 -1.71468e-05 2.31804e-22 3.62867e-05 1.49093e-22 3.93977e-39)
(8.05953e-05 -2.90635e-05 -2.26984e-22 4.29414e-05 -1.11285e-22 3.45727e-39)
(8.32422e-05 -4.01567e-05 -1.0921e-22 5.06345e-05 -3.71627e-23 6.84443e-40)
(8.57714e-05 -5.02289e-05 2.24971e-22 5.86444e-05 4.26754e-23 2.93018e-39)
(8.70239e-05 -5.95002e-05 0 6.70366e-05 0 0)
(5.64911e-06 2.58863e-05 0 0.000124756 0 0)
(8.07348e-06 3.42829e-05 -6.05721e-23 0.000152321 -9.66146e-23 4.27494e-38)
(1.10555e-05 4.34406e-05 7.29177e-23 0.000178183 1.2181e-22 4.13221e-38)
(1.43441e-05 5.27601e-05 0 0.000202452 0 0)
(1.78589e-05 6.19356e-05 0 0.0002242 0 0)
(2.15742e-05 7.07379e-05 -1.91019e-24 0.000242467 -3.28552e-24 9.45991e-42)
(2.54775e-05 7.89489e-05 0 0.000256376 0 0)
(2.95357e-05 8.63272e-05 2.56509e-24 0.000265191 4.31853e-24 8.93841e-42)
(3.38638e-05 9.29422e-05 -4.57707e-23 0.000268866 -7.47015e-23 2.08631e-39)
(3.83498e-05 9.84194e-05 5.11633e-23 0.000266749 8.02834e-23 2.11703e-39)
(4.30546e-05 0.000102554 5.83325e-23 0.000258185 8.98781e-23 1.944e-39)
(4.79036e-05 0.000105256 -6.18862e-23 0.000244047 -9.14586e-23 1.843e-39)
(5.27993e-05 0.000106392 -2.06885e-24 0.000225156 -2.98857e-24 1.57128e-42)
(5.76351e-05 0.000105864 1.10306e-24 0.000202573 1.56036e-24 3.56601e-43)
(6.22636e-05 0.000103575 6.95855e-22 0.000177576 9.70369e-22 1.0869e-37)
(6.65362e-05 9.94672e-05 -7.26866e-22 0.000151543 -9.89218e-22 1.08686e-37)
(7.03349e-05 9.35344e-05 -1.23491e-24 0.000125836 -1.65065e-24 2.53077e-43)
(7.3599e-05 8.58388e-05 2.50102e-24 0.000101701 3.26357e-24 8.89481e-43)
(7.63395e-05 7.6516e-05 -7.95853e-23 8.01884e-05 -1.00541e-22 7.41228e-40)
(7.86367e-05 6.57724e-05 7.74737e-23 6.20944e-05 9.43778e-23 6.90598e-40)
(8.06215e-05 5.38697e-05 7.9966e-23 4.79221e-05 9.1845e-23 5.92262e-40)
(8.24321e-05 4.10958e-05 -7.71284e-23 3.78691e-05 -8.30959e-23 5.4812e-40)
(8.41839e-05 2.77607e-05 -4.63345e-24 3.18725e-05 -4.56533e-24 1.69976e-42)
(8.59627e-05 1.41835e-05 0 2.96352e-05 0 0)
(8.78147e-05 6.75199e-07 4.46106e-24 3.06701e-05 3.33954e-24 1.32244e-42)
(8.9745e-05 -1.24772e-05 0 3.43556e-05 0 0)
(9.17421e-05 -2.5018e-05 0 3.99976e-05 0 0)
(9.37997e-05 -3.67205e-05 2.58242e-22 4.68801e-05 9.39535e-23 3.42591e-39)
(9.57891e-05 -4.73923e-05 -2.49503e-22 5.43233e-05 -5.769e-23 3.12897e-39)
(9.58095e-05 -5.74422e-05 0 6.26331e-05 0 0)
(6.99036e-06 3.00225e-05 -5.25849e-23 0.00013462 -6.84244e-23 4.21037e-38)
(9.61433e-06 3.8465e-05 9.70835e-23 0.000160219 1.52828e-22 1.03717e-37)
(1.28547e-05 4.76557e-05 -3.93476e-23 0.000183867 -6.33422e-23 1.11806e-38)
(1.64649e-05 5.70147e-05 0 0.000205681 0 0)
(2.03976e-05 6.62815e-05 -5.78039e-23 0.000224856 -9.34193e-23 1.0538e-38)
(2.46597e-05 7.52588e-05 6.57531e-23 0.000240538 1.02497e-22 1.01391e-38)
(2.92567e-05 8.37377e-05 -7.66908e-23 0.000251994 -1.17345e-22 9.3291e-39)
(3.41818e-05 9.15059e-05 9.03772e-23 0.000258665 1.31208e-22 1.01411e-38)
(3.95693e-05 9.86348e-05 0 0.000260667 0 0)
(4.52857e-05 0.000104646 3.59013e-24 0.000257144 4.85425e-24 8.63385e-42)
(5.14043e-05 0.000109415 -6.46412e-23 0.000247996 -8.58109e-23 1.98949e-39)
(5.77903e-05 0.000112778 3.5624e-23 0.000234025 4.45239e-23 5.47934e-40)
(6.43098e-05 0.000114578 4.92589e-24 0.000215991 5.49387e-24 1.34566e-41)
(7.07788e-05 0.000114665 4.00683e-23 0.000194858 4.86991e-23 3.96792e-40)
(7.69642e-05 0.000112901 9.59874e-22 0.000171735 1.15964e-21 1.66633e-37)
(8.26313e-05 0.000109188 -1.00502e-21 0.000147783 -1.18775e-21 1.66617e-37)
(8.75869e-05 0.000103493 4.78715e-23 0.000124129 5.5942e-23 2.86637e-40)
(9.17166e-05 9.58572e-05 -6.34222e-24 0.000101804 -7.27771e-24 9.06299e-42)
(9.50058e-05 8.64124e-05 4.66569e-23 8.1683e-05 5.19172e-23 1.80892e-40)
(9.75365e-05 7.5372e-05 -9.47007e-23 6.4455e-05 -1.02598e-22 8.1796e-40)
(9.94639e-05 6.30173e-05 -5.82148e-24 5.05904e-05 -6.00144e-24 2.62045e-42)
(0.000100973 4.96701e-05 0 4.0327e-05 0 0)
(0.000102237 3.56746e-05 1.75674e-22 3.36859e-05 1.57502e-22 1.88277e-39)
(0.000103398 2.13797e-05 -1.78822e-22 3.04874e-05 -1.46087e-22 1.96071e-39)
(0.00010455 7.11991e-06 1.70731e-22 3.0378e-05 1.22062e-22 1.52402e-39)
(0.000105736 -6.80042e-06 -1.63109e-22 3.28693e-05 -1.00084e-22 1.39515e-39)
(0.000106979 -2.01094e-05 -9.90565e-24 3.73866e-05 -4.87015e-24 4.59318e-42)
(0.000108322 -3.25638e-05 -1.5053e-22 4.33085e-05 -5.77928e-23 9.70851e-40)
(0.000109654 -4.39654e-05 4.36547e-22 5.00115e-05 1.14658e-22 7.71969e-39)
(0.00010827 -5.5006e-05 -3.0435e-22 5.79865e-05 -4.06453e-23 3.70772e-39)
(8.71013e-06 3.46898e-05 2.74469e-23 0.000143362 3.57077e-23 1.06732e-38)
(1.16755e-05 4.33101e-05 -3.66259e-23 0.000166616 -5.47665e-23 1.36262e-38)
(1.52981e-05 5.25998e-05 -4.57857e-23 0.000187834 -6.90701e-23 1.32264e-38)
(1.93765e-05 6.2069e-05 5.58697e-23 0.000207052 8.17183e-23 1.35855e-38)
(2.39025e-05 7.14986e-05 -6.36386e-23 0.00022355 -9.1303e-23 1.14096e-38)
(2.89122e-05 8.07078e-05 8.0036e-23 0.000236602 1.08865e-22 1.31904e-38)
(3.44274e-05 8.94884e-05 2.65423e-24 0.000245606 3.328e-24 1.07203e-41)
(4.04983e-05 9.76938e-05 0 0.000250218 0 0)
(4.7223e-05 0.000105302 -5.84025e-23 0.000250556 -7.06735e-23 2.46713e-39)
(5.45004e-05 0.000111832 -4.21634e-24 0.000245778 -6.32671e-24 1.91494e-42)
(6.23732e-05 0.000117193 -4.61371e-24 0.00023622 -6.67792e-24 1.52042e-42)
(7.06591e-05 0.000121177 8.43016e-23 0.000222573 9.09299e-23 2.3332e-39)
(7.9169e-05 0.000123603 4.16931e-23 0.000205553 4.48434e-23 4.03213e-40)
(8.76276e-05 0.000124285 -7.17774e-23 0.000186021 -7.52706e-23 1.00698e-39)
(9.57023e-05 0.000123052 1.29847e-21 0.000164918 1.35735e-21 2.48212e-37)
(0.000103058 0.000119772 -1.30854e-21 0.000143195 -1.34391e-21 2.29275e-37)
(0.000109417 0.000114381 -8.17079e-23 0.000121757 -8.34985e-23 6.95902e-40)
(0.000114602 0.000106896 6.26014e-23 0.000101419 6.31299e-23 3.71548e-40)
(0.00011857 9.74307e-05 1.11108e-22 8.28866e-05 1.09918e-22 9.17567e-40)
(0.000121408 8.61943e-05 5.90795e-24 6.67327e-05 5.17442e-24 1.07095e-42)
(0.000123302 7.34748e-05 5.65183e-24 5.33811e-05 4.59581e-24 1.0018e-42)
(0.000124488 5.96144e-05 -1.08038e-22 4.30901e-05 -9.5875e-23 6.87489e-40)
(0.000125208 4.49843e-05 0 3.59501e-05 0 0)
(0.000125666 2.99615e-05 -6.50067e-24 3.18862e-05 -4.84448e-24 1.97841e-42)
(0.000126017 1.49063e-05 1.83155e-22 3.06705e-05 1.24068e-22 1.41485e-39)
(0.000126347 1.45522e-07 -1.91819e-22 3.19438e-05 -1.1413e-22 1.57459e-39)
(0.000126719 -1.4028e-05 1.81891e-22 3.52566e-05 9.07764e-23 1.23878e-39)
(0.000127226 -2.73412e-05 -1.67831e-22 4.00875e-05 -6.74529e-23 1.06266e-39)
(0.000127781 -3.95807e-05 -1.62412e-22 4.58856e-05 -4.72416e-23 8.59943e-40)
(0.000124831 -5.18066e-05 1.8173e-22 5.32498e-05 3.24257e-23 1.10672e-39)
(1.09811e-05 4.00064e-05 0 0.000150552 0 0)
(1.4454e-05 4.89004e-05 -3.54936e-23 0.000171157 -4.85266e-23 1.11548e-38)
(1.86105e-05 5.83395e-05 5.3357e-23 0.000189794 7.07178e-23 1.65748e-38)
(2.33343e-05 6.79649e-05 -6.21654e-23 0.000206311 -8.01947e-23 1.42035e-38)
(2.86587e-05 7.75882e-05 7.0569e-23 0.000220069 8.54472e-23 1.29229e-38)
(3.46481e-05 8.70373e-05 -7.92156e-23 0.000230477 -9.24447e-23 1.06175e-38)
(4.13389e-05 9.61005e-05 9.25717e-23 0.000237071 1.00125e-22 1.09044e-38)
(4.88779e-05 0.000104739 7.10297e-24 0.000239748 7.2768e-24 4.54306e-41)
(5.72472e-05 0.000112731 4.09542e-24 0.000238464 4.04429e-24 1.08717e-41)
(6.64475e-05 0.000119717 4.6629e-24 0.000232646 4.45724e-24 1.031e-41)
(7.64424e-05 0.000125587 5.32947e-24 0.000222863 5.03587e-24 9.71013e-42)
(8.70129e-05 0.000130119 -2.94709e-24 0.000209715 -2.7248e-24 2.25537e-42)
(9.78929e-05 0.000133115 5.42938e-23 0.000193871 4.97815e-23 5.71965e-40)
(0.000108703 0.000134366 -2.75427e-23 0.000176086 -2.42641e-23 1.40049e-40)
(0.000118997 0.000133676 1.6083e-21 0.000157138 1.45811e-21 3.12669e-37)
(0.000128328 0.000130886 -1.7488e-21 0.000137779 -1.56703e-21 3.35821e-37)
(0.000136322 0.000125895 -3.14661e-23 0.000118697 -2.84499e-23 7.24865e-41)
(0.000142737 0.000118691 5.66243e-23 0.000100507 5.05471e-23 2.515e-40)
(0.000147501 0.000109356 -4.07587e-24 8.37462e-05 -3.59878e-24 1.05415e-42)
(0.000150707 9.80817e-05 -1.62458e-23 6.88687e-05 -1.40778e-23 1.47347e-41)
(0.000152577 8.51477e-05 -8.06368e-24 5.62399e-05 -6.77562e-24 3.23076e-42)
(0.00015341 7.09032e-05 -7.92382e-24 4.61204e-05 -6.38095e-24 2.82211e-42)
(0.000153519 5.57369e-05 -1.54785e-23 3.86531e-05 -1.17689e-23 9.85867e-42)
(0.000153183 4.00488e-05 2.52263e-22 3.38535e-05 1.78388e-22 2.34268e-39)
(0.000152622 2.42243e-05 -2.47347e-22 3.16073e-05 -1.60453e-22 2.27531e-39)
(0.000151977 8.61441e-06 2.2172e-22 3.16796e-05 1.26989e-22 1.58704e-39)
(0.000151357 -6.4631e-06 -2.03606e-22 3.37435e-05 -1.01295e-22 1.36206e-39)
(0.000150908 -2.06996e-05 1.80143e-22 3.73853e-05 7.41624e-23 9.32546e-40)
(0.000150569 -3.38542e-05 -2.14267e-22 4.21362e-05 -7.01924e-23 1.3358e-39)
(0.000145911 -4.74297e-05 0 4.86231e-05 0 0)
(1.40181e-05 4.60472e-05 0 0.000155794 0 0)
(1.81948e-05 5.52654e-05 -2.57008e-24 0.000173513 -2.92067e-24 5.46762e-41)
(2.30665e-05 6.48734e-05 4.63e-23 0.000189466 5.24082e-23 1.04878e-38)
(2.86432e-05 7.46579e-05 1.40347e-25 0.000203213 1.07409e-24 5.85114e-42)
(3.50034e-05 8.44567e-05 -7.89286e-23 0.000214218 -7.83338e-23 1.40408e-38)
(4.224e-05 9.41034e-05 -5.98963e-24 0.000222022 -5.74247e-24 5.28402e-41)
(5.0415e-05 0.000103396 -6.86085e-24 0.000226304 -5.94867e-24 5.13463e-41)
(5.97367e-05 0.000112361 5.67705e-23 0.00022718 4.85291e-23 2.34697e-39)
(7.01181e-05 0.000120627 -7.96261e-23 0.000224401 -6.43114e-23 3.54326e-39)
(8.16253e-05 0.000127966 -1.00378e-25 0.000217797 -1.7171e-25 2.20618e-46)
(9.41335e-05 0.000134232 4.80451e-23 0.000207986 3.80012e-23 6.51988e-40)
(0.000107385 0.000139219 -5.31291e-23 0.000195521 -4.05602e-23 6.59838e-40)
(0.000121017 0.000142721 2.54709e-23 0.000181018 1.99322e-23 1.05461e-40)
(0.000134533 0.00014452 -3.13643e-23 0.000165118 -2.41234e-23 1.39565e-40)
(0.000147361 0.000144404 2.04969e-21 0.000148445 1.61557e-21 4.27234e-37)
(0.000158932 0.000142186 -2.15069e-21 0.000131559 -1.68875e-21 4.27238e-37)
(0.000168769 0.000137728 -3.63146e-23 0.000114951 -2.89167e-23 9.01005e-41)
(0.000176565 0.000130975 4.18616e-23 9.90474e-05 3.33112e-23 1.12601e-40)
(0.000182216 0.00012197 -7.0341e-23 8.4222e-05 -5.57361e-23 2.44898e-40)
(0.000185827 0.000110867 9.42066e-23 7.0811e-05 7.40389e-23 4.26644e-40)
(0.000187667 9.79262e-05 -7.77003e-26 5.9112e-05 -3.51367e-26 1.37955e-46)
(0.000188101 8.34883e-05 -1.46143e-22 4.93722e-05 -1.08132e-22 7.52056e-40)
(0.000187522 6.79488e-05 1.61722e-22 4.17698e-05 1.15304e-22 9.25753e-40)
(0.000186293 5.17243e-05 1.75517e-23 3.6394e-05 1.16446e-23 9.54736e-42)
(0.000184706 3.52228e-05 1.67268e-23 3.32303e-05 1.03763e-23 8.23138e-42)
(0.000182962 1.88184e-05 -2.58854e-22 3.21595e-05 -1.43864e-22 1.76883e-39)
(0.000181228 2.85845e-06 3.56182e-24 3.29698e-05 2.4903e-24 6.66163e-42)
(0.000179707 -1.23126e-05 2.73351e-22 3.53617e-05 1.15946e-22 1.8908e-39)
(0.00017836 -2.64197e-05 0 3.89559e-05 0 0)
(0.000171884 -4.14585e-05 0 4.4327e-05 0 0)
(1.80885e-05 5.28265e-05 0 0.000158718 0 0)
(2.31984e-05 6.23614e-05 4.97458e-23 0.000173386 4.77523e-23 1.68664e-38)
(2.89946e-05 7.21092e-05 2.47952e-25 0.000186594 1.12329e-24 5.41161e-42)
(3.56612e-05 8.20041e-05 1.07345e-25 0.000197563 1.03101e-24 6.50205e-42)
(4.3328e-05 9.19088e-05 -1.71277e-22 0.000205856 -1.33746e-22 5.6121e-38)
(5.21128e-05 0.000101659 1.05743e-22 0.000211158 7.6437e-23 1.50534e-38)
(6.21155e-05 0.000111083 7.89634e-24 0.000213301 5.57652e-24 5.60905e-41)
(7.35639e-05 0.000120212 0 0.00021252 0 0)
(8.63538e-05 0.000128611 -7.91888e-23 0.000208459 -5.26206e-23 2.82584e-39)
(0.000100563 0.000136158 8.96991e-23 0.000201328 5.65271e-23 2.89254e-39)
(0.00011599 0.000142695 -5.40855e-23 0.000191707 -3.5284e-23 7.15781e-40)
(0.000132318 0.000148037 -2.92527e-25 0.000180118 -1.39352e-24 1.54017e-42)
(0.000149075 0.000151989 6.54225e-23 0.000167112 4.23491e-23 6.7055e-40)
(0.000165631 0.000154334 -2.20604e-24 0.000153221 -1.47179e-24 5.70827e-43)
(0.000181279 0.000154848 2.50371e-21 0.000138916 1.72245e-21 5.46341e-37)
(0.000195319 0.000153317 -2.62698e-21 0.000124588 -1.81756e-21 5.46839e-37)
(0.000207171 0.000149564 2.58136e-24 0.000110544 1.82488e-24 4.09414e-43)
(0.000216457 0.000143477 8.47171e-23 9.70356e-05 6.05867e-23 3.49339e-40)
(0.000223052 0.000135045 -9.89177e-26 8.42861e-05 -2.24428e-25 1.56426e-42)
(0.000227077 0.000124373 -1.07834e-22 7.25142e-05 -7.72821e-23 4.68329e-40)
(0.000228853 0.000111683 1.81556e-22 6.19436e-05 1.27681e-22 1.07068e-39)
(0.000228822 9.72962e-05 -1.69427e-22 5.27949e-05 -1.17178e-22 9.28103e-40)
(0.000227465 8.16033e-05 0 4.52642e-05 0 0)
(0.000225235 6.50302e-05 -1.99792e-23 3.94971e-05 -1.26646e-23 1.04298e-41)
(0.000222503 4.80033e-05 3.10595e-22 3.55634e-05 1.8254e-22 2.23223e-39)
(0.000219539 3.09192e-05 -6.22068e-22 3.34464e-05 -3.37609e-22 8.76691e-39)
(0.000216569 1.41562e-05 3.71505e-24 3.30431e-05 2.75033e-24 7.34875e-42)
(0.000213861 -1.90348e-06 -1.41586e-23 3.41662e-05 -5.28862e-24 2.82339e-42)
(0.000211399 -1.69521e-05 2.71009e-22 3.65347e-05 1.00007e-22 1.4532e-39)
(0.000203033 -3.3501e-05 0 4.05964e-05 0 0)
(2.35169e-05 6.02739e-05 4.94917e-24 0.000159002 3.15338e-24 2.68787e-40)
(2.98215e-05 7.00482e-05 0 0.000170537 0 0)
(3.67809e-05 7.98556e-05 4.18216e-24 0.000180991 2.86192e-24 6.44582e-41)
(4.48052e-05 8.97611e-05 -7.58761e-23 0.000189232 -4.67166e-23 1.41476e-38)
(5.40778e-05 9.96469e-05 9.78927e-23 0.000194926 5.42307e-23 1.66618e-38)
(6.47342e-05 0.00010935 -1.17857e-22 0.000197892 -6.40451e-23 1.56603e-38)
(7.69535e-05 0.000118774 1.38435e-22 0.000198134 6.92553e-23 1.6099e-38)
(9.08844e-05 0.000127854 8.12886e-23 0.00019586 4.18229e-23 3.69004e-39)
(0.000106494 0.000136218 -1.99072e-22 0.0001908 -1.00241e-22 1.65039e-38)
(0.000123806 0.000143811 -7.33271e-24 0.000183413 -6.16154e-24 2.99073e-42)
(0.000142553 0.000150484 1.12119e-22 0.000174212 5.70791e-23 3.00376e-39)
(0.00016234 0.00015609 -6.68836e-23 0.000163687 -3.65812e-23 7.30352e-40)
(0.000182567 0.000160452 3.60938e-23 0.00015232 1.91088e-23 2.02195e-40)
(0.000202464 0.000163367 6.16944e-23 0.000140534 3.54466e-23 3.98123e-40)
(0.000221175 0.000164604 2.9709e-21 0.000128664 1.79118e-21 6.73314e-37)
(0.000237868 0.000163918 -3.15596e-21 0.000116944 -1.93483e-21 6.92022e-37)
(0.000251855 0.000161082 6.67227e-23 0.000105519 4.22943e-23 2.32894e-40)
(0.000262696 0.000155919 4.79493e-23 9.44843e-05 3.10288e-23 8.45123e-41)
(0.000270247 0.000148349 -9.69742e-23 8.3924e-05 -6.3535e-23 3.78625e-40)
(0.000274655 0.000138411 2.19719e-22 7.39431e-05 1.43931e-22 1.50287e-39)
(0.000276301 0.000126276 1.18635e-23 6.4687e-05 6.69821e-24 1.7044e-42)
(0.000275713 0.000112232 -3.60701e-22 5.6338e-05 -2.31796e-22 3.37525e-39)
(0.000273468 9.66545e-05 1.89292e-22 4.90944e-05 1.18891e-22 8.87202e-40)
(0.000270115 7.99718e-05 3.67141e-22 4.31401e-05 2.19132e-22 2.79341e-39)
(0.000266114 6.26237e-05 -3.59104e-22 3.86135e-05 -2.04973e-22 2.71655e-39)
(0.000261806 4.50283e-05 3.43899e-22 3.55851e-05 1.81449e-22 2.14737e-39)
(0.000257484 2.75942e-05 -3.56463e-22 3.40532e-05 -1.73474e-22 2.34032e-39)
(0.00025348 1.07442e-05 2.02782e-23 3.39344e-05 8.7458e-24 6.74996e-42)
(0.000249799 -5.1837e-06 0 3.50483e-05 0 0)
(0.000239517 -2.32127e-05 -3.9842e-23 3.76633e-05 -1.1722e-23 2.24143e-41)
(3.06889e-05 6.82164e-05 -5.70419e-24 0.000156386 -2.80691e-24 2.90686e-40)
(3.84805e-05 7.80808e-05 6.05337e-23 0.0001648 2.69524e-23 1.99302e-38)
(4.68677e-05 8.78131e-05 -7.20922e-23 0.000172561 -2.89157e-23 1.83227e-38)
(5.65428e-05 9.75749e-05 -5.65981e-24 0.000178195 -2.31768e-24 6.99247e-41)