/*--------------------------------*- C++ -*----------------------------------*\
  =========                 |
  \\      /  F ield         | OpenFOAM: The Open Source CFD Toolbox
   \\    /   O peration     | Website:  https://openfoam.org
    \\  /    A nd           | Version:  12
     \\/     M anipulation  |
\*---------------------------------------------------------------------------*/
FoamFile
{
    format      ascii;
    class       volScalarField;
    location    "320";
    object      p;
}
// * * * * * * * * * * * * * * * * * * * * * * * * * * * * * * * * * * * * * //

dimensions      [0 2 -2 0 0 0 0];

internalField   nonuniform List<scalar> 
6750
(
0.0216307
0.0216086
0.0215792
0.0214157
0.0203872
0.0231491
0.0231126
0.0229852
0.0227193
0.02236
0.0249419
0.0248827
0.0247521
0.024554
0.024401
0.0268225
0.0267286
0.0266043
0.0264639
0.0263871
0.0286896
0.0285517
0.0284177
0.0283051
0.0282664
0.0304635
0.0302771
0.0301223
0.0300196
0.0299982
0.0320957
0.0318595
0.03168
0.0315802
0.0315673
0.0335569
0.0332717
0.0330675
0.0329685
0.0329607
0.0348287
0.0344969
0.03427
0.0341717
0.0341677
0.0359006
0.0355263
0.0352799
0.035183
0.0351815
0.0367694
0.036358
0.0360959
0.0360009
0.0360013
0.0374383
0.0369959
0.0367226
0.03663
0.0366315
0.0379165
0.0374495
0.03717
0.0370797
0.0370815
0.0382183
0.0377323
0.037453
0.037364
0.037365
0.0383566
0.037865
0.037591
0.0374995
0.0374984
0.0383567
0.037865
0.037591
0.0374995
0.0374985
0.0382184
0.0377324
0.0374531
0.037364
0.0373651
0.0379167
0.0374496
0.0371702
0.0370799
0.0370817
0.0374385
0.0369962
0.0367229
0.0366302
0.0366317
0.0367697
0.0363583
0.0360962
0.0360012
0.0360016
0.035901
0.0355267
0.0352803
0.0351833
0.0351819
0.0348291
0.0344974
0.0342704
0.0341722
0.0341681
0.0335574
0.0332722
0.033068
0.032969
0.0329612
0.0320962
0.0318601
0.0316806
0.0315808
0.0315679
0.0304642
0.0302778
0.0301229
0.0300203
0.0299989
0.0286904
0.0285525
0.0284184
0.0283058
0.0282671
0.0268233
0.0267294
0.0266052
0.0264648
0.0263879
0.0249428
0.0248836
0.024753
0.0245549
0.024402
0.0231501
0.0231136
0.0229862
0.0227203
0.022361
0.0216317
0.0216097
0.0215803
0.0214168
0.0203884
0.0142083
0.014801
0.0162693
0.0173542
0.0181407
0.0187656
0.0192554
0.0196213
0.0198913
0.0200757
0.0201377
0.0201514
0.0200888
0.019946
0.0197217
0.0194122
0.0190146
0.0185318
0.017967
0.0173203
0.0165861
0.015869
0.0151141
0.0143364
0.0135559
0.0127856
0.012035
0.0113188
0.010647
0.00996424
0.018118
0.0189137
0.0197135
0.0201143
0.0203431
0.0204844
0.0205403
0.0205198
0.0204519
0.0203337
0.020124
0.0199369
0.0197315
0.0195107
0.019273
0.0190094
0.0187074
0.018356
0.0179446
0.01747
0.0169505
0.0163172
0.0156526
0.0149479
0.014211
0.0134535
0.0126833
0.0119149
0.0111886
0.0104841
0.0205986
0.0207822
0.0210971
0.021251
0.0213267
0.0213349
0.0212635
0.0211233
0.0209356
0.0206647
0.0203151
0.0199799
0.0196167
0.0192365
0.0188454
0.018443
0.0180262
0.0175897
0.0171278
0.0166359
0.0161127
0.0155577
0.0149774
0.0143711
0.0137437
0.013101
0.0124442
0.011784
0.0112074
0.0107904
0.0220415
0.0218173
0.0219461
0.022029
0.022038
0.0219706
0.0218218
0.0216083
0.021339
0.0209447
0.0204985
0.0200392
0.0195376
0.0190106
0.01847
0.0179234
0.0173765
0.0168321
0.0162911
0.0157521
0.0152135
0.0146791
0.0141457
0.01361
0.0130721
0.0125321
0.0119831
0.0114275
0.0109945
0.0109123
0.023132
0.0227599
0.0228065
0.0228186
0.0227442
0.0225894
0.0223545
0.022055
0.0216887
0.0211789
0.0206366
0.0200569
0.01943
0.0187755
0.018109
0.0174437
0.0167906
0.0161581
0.0155513
0.0149718
0.0144191
0.0138924
0.0133883
0.012902
0.0124298
0.0119678
0.0115024
0.0110268
0.0107023
0.0109244
0.0240791
0.023668
0.0236497
0.0235816
0.0234214
0.0231801
0.0228589
0.0224698
0.0219961
0.0213811
0.0207387
0.0200434
0.0192995
0.0185291
0.0177505
0.0169809
0.0162356
0.0155264
0.014861
0.0142432
0.0136729
0.0131475
0.0126626
0.0122118
0.0117891
0.0113881
0.0109899
0.0105804
0.0103462
0.0108411
0.024917
0.024512
0.0244356
0.0242908
0.0240517
0.0237296
0.0233266
0.0228511
0.0222648
0.021556
0.0208136
0.0200083
0.0191546
0.0182759
0.0173935
0.0165279
0.0156973
0.0149162
0.0141946
0.0135374
0.0129451
0.0124146
0.0119403
0.0115144
0.0111294
0.0107767
0.0104334
0.0100801
0.00992596
0.0106625
0.0256662
0.0252973
0.0251705
0.024954
0.0246407
0.0242408
0.0237599
0.0231999
0.0225005
0.021708
0.0208655
0.0199552
0.0189974
0.0180169
0.0170373
0.0160817
0.015171
0.0143217
0.0135453
0.0128479
0.0122304
0.0116894
0.0112183
0.0108086
0.0104514
0.0101365
0.00983715
0.00953073
0.00944764
0.0103922
0.0263487
0.0260373
0.0258663
0.025581
0.0251957
0.0247208
0.0241644
0.0235154
0.0227119
0.0218381
0.0208967
0.0198856
0.0188286
0.0177514
0.0166799
0.0156394
0.0146526
0.013738
0.0129083
0.0121701
0.0115249
0.0109691
0.0104955
0.0100947
0.00975693
0.00947065
0.00920577
0.00893807
0.00891796
0.0100361
0.0269814
0.0267422
0.0265315
0.0261788
0.0257233
0.0251769
0.0245444
0.0237984
0.0229052
0.0219469
0.020909
0.019801
0.0186485
0.0174787
0.0163193
0.0151975
0.0141379
0.01316
0.0122776
0.0114982
0.0108232
0.010249
0.00976795
0.00937004
0.00904485
0.00877949
0.00854095
0.00830493
0.00834104
0.00960035
0.0275767
0.0274196
0.0271729
0.0267532
0.0262279
0.025612
0.0249031
0.0240562
0.0230834
0.0220377
0.0209052
0.0197029
0.0184578
0.0171981
0.0159536
0.0147531
0.0136224
0.0125824
0.0116476
0.010826
0.0101192
0.00952343
0.00903079
0.00863072
0.00831224
0.00806129
0.00784219
0.00763187
0.00771852
0.00909001
0.0281448
0.028077
0.0277972
0.0273101
0.0267149
0.0260316
0.0252428
0.0242966
0.0232487
0.0221134
0.0208874
0.0195925
0.0182563
0.0169086
0.0155806
0.0143027
0.013102
0.0120001
0.0110125
0.0101475
0.00940675
0.00878652
0.00827854
0.00787188
0.00755508
0.00731293
0.00710735
0.00691762
0.00704998
0.00850874
0.0286954
0.0287216
0.0284114
0.0278573
0.0271934
0.0264385
0.0255623
0.024529
0.0234026
0.0221763
0.0208576
0.0194708
0.0180442
0.0166091
0.0151982
0.0138432
0.0125723
0.0114082
0.0103667
0.00945649
0.00867954
0.0080319
0.00750508
0.0070878
0.00676819
0.00652988
0.00633264
0.00615907
0.00633295
0.00785837
0.0292382
0.0293601
0.0290222
0.0284008
0.027668
0.0268397
0.0258694
0.0247578
0.0235473
0.0222289
0.0208174
0.0193383
0.0178209
0.0162981
0.0148038
0.0133711
0.0120291
0.0108013
0.00970411
0.00874659
0.00793077
0.00725264
0.00670348
0.00627174
0.00594515
0.00570616
0.0055126
0.00535125
0.00556296
0.00713862
0.0297806
0.0300018
0.0296379
0.0289485
0.0281462
0.0272394
0.0261732
0.0249857
0.0236862
0.0222741
0.0207684
0.0191955
0.0175859
0.0159739
0.0143947
0.0128825
0.0114675
0.0101738
0.00901842
0.00801077
0.00715298
0.00644098
0.00586586
0.00541582
0.00507822
0.00483426
0.00464001
0.00448724
0.0047335
0.00634678
0.0303299
0.0306581
0.0302707
0.0295129
0.0286339
0.0276379
0.0264852
0.0252158
0.0238229
0.0223144
0.020712
0.0190426
0.0173382
0.0156343
0.0139676
0.0123731
0.010882
0.00951934
0.00830251
0.00724125
0.00633785
0.00558819
0.00498319
0.00451084
0.00415811
0.00390493
0.00370575
0.00355802
0.00383583
0.00547748
0.0308961
0.0313414
0.030932
0.0301026
0.0291405
0.0280456
0.0268118
0.0254519
0.0239608
0.0223523
0.0206492
0.0188795
0.0170764
0.0152768
0.0135184
0.0118377
0.0102666
0.0088308
0.00754831
0.00642919
0.00547586
0.00468419
0.00404494
0.00354593
0.00317374
0.00290692
0.00269847
0.00255219
0.00285871
0.0045223
0.0314961
0.0320652
0.0316356
0.0307249
0.0296699
0.0284778
0.027158
0.0256991
0.0241042
0.0223904
0.0205811
0.0187056
0.0167984
0.0148977
0.0130425
0.0112703
0.0096139
0.00809973
0.00674639
0.00556424
0.00455586
0.00371713
0.00303867
0.00250814
0.00211172
0.00182653
0.0016042
0.00145554
0.00178797
0.0034693
0.0321536
0.0328396
0.0323921
0.0313945
0.0302319
0.0289461
0.0275285
0.0259626
0.0242571
0.0224309
0.0205082
0.0185197
0.0165014
0.0144926
0.0125337
0.0106633
0.00891496
0.00731598
0.00588543
0.00463403
0.00356455
0.00267284
0.00194943
0.00138185
0.00095583
0.00064697
0.000405677
0.000250364
0.000605739
0.00230233
0.0328875
0.0336838
0.0332192
0.0321239
0.0308444
0.0294594
0.0279322
0.0262498
0.0244244
0.0224762
0.0204307
0.0183199
0.0161812
0.0140554
0.0119842
0.0100071
0.00815869
0.00646695
0.00495151
0.00362342
0.00248562
0.00153398
0.000758929
0.000147853
-0.000313971
-0.000652553
-0.000918616
-0.00108552
-0.000710495
0.000999945
0.0337233
0.0346311
0.0341382
0.0329252
0.0315302
0.0300309
0.0283802
0.0265689
0.0246112
0.0225285
0.0203478
0.0181027
0.015832
0.013578
0.0113836
0.00928933
0.00733085
0.00553671
0.00392709
0.00251339
0.0012987
0.000278869
-0.000555735
-0.00121787
-0.00172278
-0.00209817
-0.00239579
-0.00258017
-0.00218948
-0.000466103
0.0347022
0.0357033
0.0351694
0.0338333
0.0323108
0.0306767
0.0288855
0.026929
0.0248226
0.0225892
0.0202576
0.0178628
0.0154453
0.013049
0.0107179
0.00849361
0.00641274
0.00450448
0.00278948
0.00127945
-2.24087e-05
-0.00112025
-0.00202382
-0.00274604
-0.0033027
-0.00372331
-0.00406061
-0.00426968
-0.00386839
-0.00213327
0.0358705
0.0369452
0.0363533
0.0348856
0.0332102
0.0314175
0.0294639
0.0273406
0.0250641
0.0226589
0.0201558
0.0175917
0.0150088
0.0124523
0.00996765
0.00759748
0.00537914
0.00334247
0.00150852
-0.000110796
-0.00151218
-0.00269985
-0.00368371
-0.00447684
-0.0050957
-0.00557171
-0.00595853
-0.00620126
-0.00579628
-0.00405187
0.0372962
0.0384174
0.0377502
0.0361231
0.0342617
0.0322803
0.0301351
0.0278159
0.0253406
0.022736
0.0200349
0.0172762
0.0145039
0.0117647
0.00910534
0.00656946
0.00419507
0.00201245
4.29294e-05
-0.00170144
-0.00321739
-0.00450928
-0.00558719
-0.00646445
-0.00715825
-0.00770207
-0.00815047
-0.00843824
-0.00803929
-0.00629087
0.0390921
0.0402136
0.039432
0.0376005
0.0355114
0.0333006
0.0309236
0.0283691
0.0256565
0.0228155
0.0198812
0.0168947
0.0139019
0.0109513
0.00809046
0.00536401
0.00281035
0.000460014
-0.00166563
-0.00355456
-0.00520367
-0.00661753
-0.00780648
-0.00878418
-0.00956868
-0.0101956
-0.0107205
-0.011068
-0.0106894
-0.0089478
0.0413853
0.0424576
0.0414987
0.0394015
0.0370259
0.0345279
0.0318622
0.0290171
0.0260141
0.022886
0.0196709
0.0164123
0.0131582
0.00995836
0.00686161
0.00391277
0.00115036
-0.00139528
-0.00370302
-0.00576116
-0.00756688
-0.00912506
-0.0104464
-0.0115448
-0.0124395
-0.0131683
-0.0137878
-0.0142134
-0.0138767
-0.0121632
0.0444318
0.0453433
0.044106
0.0416532
0.0389043
0.0360335
0.0329957
0.0297795
0.0264099
0.0229231
0.0193609
0.0157696
0.0121991
0.00870033
0.00532234
0.00210967
-0.000899899
-0.0036769
-0.00620104
-0.00846126
-0.0104552
-0.012188
-0.0136706
-0.0149174
-0.0159483
-0.016803
-0.0175392
-0.0180664
-0.0178047
-0.0161601
0.048614
0.049153
0.0474618
0.0445163
0.0412682
0.037901
0.0343709
0.0306692
0.0268251
0.02288
0.0188795
0.0148731
0.0109127
0.00704948
0.00333179
-0.000197471
-0.00350261
-0.00655632
-0.00934008
-0.0118441
-0.0140671
-0.0160148
-0.017698
-0.0191313
-0.0203351
-0.0213501
-0.0222335
-0.0228953
-0.0227673
-0.021277
0.0548041
0.0545961
0.0521599
0.0485137
0.04456
0.0404714
0.0362166
0.0318009
0.027265
0.0226598
0.0180384
0.0134547
0.00896183
0.00461003
0.000444485
-0.00349614
-0.00718075
-0.0105862
-0.0136965
-0.0165024
-0.0190059
-0.0212257
-0.0231577
-0.0248163
-0.0262229
-0.0274154
-0.0284469
-0.029243
-0.0293117
-0.0281423
0.0656116
0.0637168
0.0597259
0.0548491
0.0497315
0.0444695
0.0390596
0.0335371
0.0279602
0.022389
0.0168811
0.0114895
0.00626201
0.00124
-0.00354218
-0.00805715
-0.0122841
-0.0162083
-0.0198216
-0.0231215
-0.0261043
-0.0287577
-0.0311074
-0.0331619
-0.0349321
-0.0364438
-0.0377421
-0.0388162
-0.0393706
-0.0388508
0.0178748
0.0188123
0.0205598
0.0219412
0.0230947
0.0241666
0.0251909
0.0261765
0.0271332
0.0280706
0.0289969
0.0299199
0.0308476
0.0317888
0.0327517
0.0337467
0.0347867
0.035888
0.0370694
0.0383524
0.0397646
0.0413454
0.0431425
0.0452216
0.0476717
0.0506281
0.0542759
0.0588281
0.064512
0.0718491
0.0221947
0.0231698
0.0242941
0.0252291
0.026062
0.0268547
0.0276186
0.028358
0.0290803
0.0297935
0.0305055
0.0312243
0.0319583
0.0327163
0.0335081
0.0343452
0.0352415
0.0362139
0.0372828
0.0384728
0.0398162
0.0413564
0.0431498
0.0452747
0.0478406
0.0510103
0.0550183
0.0601864
0.0670022
0.0760539
0.0245018
0.0253701
0.026212
0.0269624
0.0276897
0.0284104
0.0291215
0.0298239
0.0305224
0.0312228
0.0319313
0.0326545
0.0333996
0.034175
0.03499
0.0358562
0.0367874
0.0378012
0.0389187
0.0401669
0.0415811
0.0432082
0.0451112
0.0473774
0.0501308
0.0535506
0.0579031
0.0635669
0.071193
0.0814731
0.0265135
0.027273
0.0279998
0.0286707
0.0293343
0.0300004
0.0306682
0.0313405
0.0320221
0.0327186
0.0334355
0.0341793
0.0349568
0.0357762
0.036647
0.037581
0.0385925
0.0396992
0.0409235
0.042294
0.0438481
0.0456357
0.0477239
0.0502059
0.0532132
0.0569351
0.0616524
0.0677604
0.0760012
0.0871125
0.0283906
0.0290575
0.029695
0.030295
0.0308988
0.0315164
0.0321485
0.0327977
0.0334684
0.0341652
0.0348933
0.0356587
0.0364682
0.0373301
0.0382542
0.0392525
0.04034
0.0415353
0.042862
0.0443502
0.0460397
0.0479829
0.0502507
0.0529406
0.0561901
0.0601959
0.0652488
0.0717552
0.0805408
0.0924008
0.0301046
0.0306896
0.0312513
0.031792
0.0323488
0.0329305
0.0335377
0.0341726
0.0348389
0.0355407
0.0362829
0.0370712
0.0379123
0.0388146
0.0397879
0.0408448
0.0420005
0.0432746
0.0446916
0.0462832
0.0480908
0.0501692
0.0525923
0.0554615
0.058919
0.0631682
0.0685094
0.0753621
0.0846336
0.0972014
0.0316525
0.0321645
0.032662
0.0331544
0.0336745
0.0342294
0.0348193
0.035446
0.0361126
0.036823
0.0375816
0.0383939
0.0392666
0.0402078
0.0412278
0.0423391
0.0435576
0.0449033
0.0464016
0.0480852
0.0499971
0.0521939
0.0547518
0.0577754
0.0614108
0.065867
0.0714531
0.0786023
0.088288
0.101484
0.0330297
0.033476
0.0339188
0.0343716
0.0348629
0.0353977
0.0359758
0.0365985
0.0372686
0.0379895
0.0387653
0.0396013
0.040504
0.0414817
0.0425445
0.0437054
0.0449804
0.0463901
0.0479606
0.0497255
0.0517288
0.0540286
0.0567032
0.0598592
0.0636463
0.0682779
0.0740709
0.0814705
0.0914956
0.105223
0.0342278
0.0346153
0.0350114
0.0354325
0.0359014
0.0364214
0.0369917
0.0376134
0.0382887
0.0390206
0.0398131
0.0406711
0.0416012
0.0426115
0.0437123
0.0449167
0.046241
0.0477062
0.0493389
0.0511735
0.0532548
0.0556422
0.0584152
0.0616826
0.0655966
0.0703742
0.0763389
0.0839461
0.0942394
0.108406
0.0352398
0.0355755
0.0359331
0.0363291
0.0367811
0.0372903
0.0378557
0.0384781
0.0391593
0.0399018
0.0407094
0.0415869
0.0425408
0.0435792
0.0447124
0.0459536
0.0473195
0.0488312
0.0505158
0.0524082
0.0545541
0.0570135
0.0598673
0.0632257
0.0672429
0.0721388
0.0782424
0.0860173
0.0965147
0.111036
0.0360628
0.0363546
0.0366813
0.0370582
0.0374976
0.0379992
0.0385618
0.0391858
0.0398725
0.0406244
0.041445
0.042339
0.0433126
0.0443741
0.0455338
0.046805
0.0482045
0.0497537
0.05148
0.0534187
0.055616
0.0581327
0.0610505
0.0644808
0.0685792
0.0735679
0.0797801
0.0876866
0.0983316
0.113135
0.0366989
0.0369553
0.0372585
0.0376215
0.0380518
0.0385482
0.0391092
0.039735
0.0404266
0.0411863
0.0420172
0.0429242
0.0439134
0.0449929
0.0461732
0.0474675
0.0488929
0.0504709
0.0522291
0.0542031
0.0564396
0.0589998
0.061966
0.0654505
0.0696101
0.0746685
0.0809621
0.0889675
0.0997122
0.114736
0.0371552
0.0373854
0.0376718
0.0380253
0.0384495
0.0389425
0.0395028
0.0401302
0.0408256
0.041591
0.0424297
0.0433462
0.0443467
0.0454392
0.0466343
0.0479453
0.0493893
0.0509878
0.0527688
0.054768
0.0570323
0.0596234
0.0626239
0.0661468
0.0703495
0.0754569
0.0818076
0.0898828
0.100687
0.115878
0.0374435
0.0376566
0.0379325
0.0382801
0.0387007
0.0391918
0.0397518
0.0403804
0.0410784
0.0418476
0.0426913
0.0436139
0.0446217
0.0457226
0.0469271
0.0482488
0.0497045
0.0513162
0.0531116
0.0551268
0.0574087
0.0600193
0.0630415
0.0665885
0.0708184
0.0759565
0.0823431
0.090462
0.101295
0.116607
0.037579
0.0377837
0.0380547
0.0383996
0.0388186
0.0393089
0.0398688
0.040498
0.0411973
0.0419684
0.0428146
0.0437402
0.0447514
0.0458563
0.0470655
0.0483922
0.0498536
0.0514715
0.0532739
0.0552967
0.0575871
0.060207
0.0632395
0.066798
0.0710409
0.0761935
0.0825972
0.0907369
0.101576
0.11696
0.037579
0.0377838
0.0380548
0.0383997
0.0388186
0.0393089
0.0398688
0.040498
0.0411973
0.0419685
0.0428146
0.0437402
0.0447514
0.0458564
0.0470655
0.0483922
0.0498536
0.0514715
0.0532739
0.0552967
0.0575871
0.060207
0.0632395
0.0667981
0.0710409
0.0761935
0.0825973
0.0907369
0.101576
0.11696
0.0374436
0.0376567
0.0379326
0.0382802
0.0387008
0.0391919
0.0397519
0.0403805
0.0410784
0.0418477
0.0426914
0.043614
0.0446217
0.0457226
0.0469272
0.0482488
0.0497046
0.0513162
0.0531116
0.0551269
0.0574088
0.0600194
0.0630416
0.0665886
0.0708185
0.0759565
0.0823432
0.0904621
0.101295
0.116607
0.0371553
0.0373855
0.037672
0.0380254
0.0384496
0.0389427
0.0395029
0.0401303
0.0408257
0.0415912
0.0424298
0.0433463
0.0443468
0.0454393
0.0466344
0.0479454
0.0493894
0.0509879
0.0527689
0.0547681
0.0570325
0.0596235
0.0626241
0.0661469
0.0703497
0.075457
0.0818078
0.0898829
0.100688
0.115878
0.0366991
0.0369556
0.0372587
0.0376217
0.038052
0.0385484
0.0391094
0.0397352
0.0404268
0.0411864
0.0420174
0.0429244
0.0439135
0.0449931
0.0461733
0.0474677
0.0488931
0.050471
0.0522292
0.0542033
0.0564398
0.059
0.0619662
0.0654507
0.0696103
0.0746687
0.0809623
0.0889677
0.0997124
0.114736
0.0360631
0.0363549
0.0366816
0.0370585
0.0374978
0.0379994
0.038562
0.039186
0.0398727
0.0406246
0.0414452
0.0423392
0.0433128
0.0443743
0.045534
0.0468052
0.0482047
0.0497539
0.0514802
0.0534189
0.0556162
0.0581329
0.0610507
0.064481
0.0685794
0.0735682
0.0797804
0.0876869
0.0983319
0.113135
0.0352402
0.0355759
0.0359334
0.0363295
0.0367814
0.0372906
0.037856
0.0384784
0.0391595
0.0399021
0.0407097
0.0415872
0.0425411
0.0435794
0.0447127
0.0459539
0.0473198
0.0488315
0.050516
0.0524085
0.0545543
0.0570138
0.0598675
0.063226
0.0672432
0.0721392
0.0782427
0.0860177
0.096515
0.111036
0.0342283
0.0346157
0.0350118
0.0354329
0.0359018
0.0364217
0.036992
0.0376137
0.038289
0.039021
0.0398134
0.0406714
0.0416015
0.0426118
0.0437126
0.044917
0.0462413
0.0477065
0.0493392
0.0511738
0.0532551
0.0556425
0.0584155
0.061683
0.0655969
0.0703746
0.0763393
0.0839465
0.0942399
0.108406
0.0330302
0.0334765
0.0339192
0.0343721
0.0348633
0.0353981
0.0359762
0.0365989
0.037269
0.0379899
0.0387657
0.0396016
0.0405044
0.041482
0.0425449
0.0437057
0.0449808
0.0463905
0.0479609
0.0497258
0.0517291
0.054029
0.0567035
0.0598596
0.0636467
0.0682783
0.0740714
0.081471
0.0914961
0.105224
0.0316531
0.032165
0.0326626
0.0331549
0.033675
0.0342299
0.0348197
0.0354464
0.036113
0.0368234
0.037582
0.0383943
0.039267
0.0402082
0.0412282
0.0423395
0.043558
0.0449037
0.046402
0.0480856
0.0499975
0.0521943
0.0547523
0.0577758
0.0614112
0.0658674
0.0714536
0.0786028
0.0882885
0.101485
0.0301052
0.0306902
0.0312519
0.0317925
0.0323493
0.032931
0.0335382
0.0341731
0.0348394
0.0355412
0.0362834
0.0370717
0.0379128
0.038815
0.0397883
0.0408452
0.042001
0.0432751
0.0446921
0.0462837
0.0480913
0.0501697
0.0525928
0.055462
0.0589195
0.0631687
0.0685099
0.0753627
0.0846342
0.0972021
0.0283914
0.0290582
0.0296956
0.0302957
0.0308995
0.031517
0.0321491
0.0327983
0.0334689
0.0341657
0.0348938
0.0356592
0.0364687
0.0373306
0.0382547
0.039253
0.0403405
0.0415358
0.0428624
0.0443507
0.0460402
0.0479834
0.0502512
0.0529412
0.0561906
0.0601965
0.0652494
0.0717558
0.0805415
0.0924016
0.0265143
0.0272738
0.0280005
0.0286714
0.029335
0.0300011
0.0306689
0.0313411
0.0320227
0.0327191
0.0334361
0.0341798
0.0349573
0.0357767
0.0366475
0.0375815
0.038593
0.0396997
0.040924
0.0422945
0.0438486
0.0456362
0.0477244
0.0502065
0.0532138
0.0569357
0.061653
0.0677611
0.076002
0.0871134
0.0245027
0.025371
0.0262128
0.0269632
0.0276905
0.0284112
0.0291222
0.0298245
0.030523
0.0312234
0.0319319
0.0326551
0.0334002
0.0341756
0.0349906
0.0358567
0.036788
0.0378017
0.0389192
0.0401674
0.0415816
0.0432088
0.0451118
0.047378
0.0501314
0.0535512
0.0579037
0.0635676
0.0711938
0.0814741
0.0221957
0.0231707
0.024295
0.02523
0.0260629
0.0268555
0.0276193
0.0283588
0.029081
0.0297942
0.0305061
0.0312249
0.0319589
0.0327169
0.0335087
0.0343457
0.035242
0.0362145
0.0372833
0.0384733
0.0398168
0.041357
0.0431504
0.0452753
0.0478413
0.051011
0.055019
0.0601872
0.067003
0.0760549
0.017876
0.0188134
0.0205608
0.0219422
0.0230956
0.0241676
0.0251918
0.0261773
0.027134
0.0280714
0.0289977
0.0299206
0.0308483
0.0317894
0.0327523
0.0337473
0.0347873
0.0358886
0.03707
0.038353
0.0397652
0.041346
0.0431431
0.0452223
0.0476724
0.0506288
0.0542766
0.0588289
0.0645129
0.0718501
0.0656127
0.0637179
0.0597271
0.0548503
0.0497327
0.0444707
0.0390608
0.0335384
0.0279614
0.0223903
0.0168823
0.0114907
0.00626323
0.0012412
-0.003541
-0.00805599
-0.012283
-0.0162073
-0.0198206
-0.0231205
-0.0261033
-0.0287567
-0.0311065
-0.033161
-0.0349313
-0.036443
-0.0377413
-0.0388155
-0.0393699
-0.0388502
0.0548051
0.054597
0.0521609
0.0485147
0.044561
0.0404725
0.0362177
0.031802
0.0272661
0.0226609
0.0180395
0.0134558
0.00896294
0.00461112
0.000445562
-0.00349509
-0.00717972
-0.0105852
-0.0136955
-0.0165015
-0.0190049
-0.0212248
-0.0231569
-0.0248156
-0.0262221
-0.0274147
-0.0284462
-0.0292424
-0.029311
-0.0281417
0.0486149
0.0491538
0.0474627
0.0445172
0.0412692
0.037902
0.0343719
0.0306702
0.0268262
0.022881
0.0188805
0.0148742
0.0109137
0.00705049
0.00333278
-0.000196496
-0.00350166
-0.0065554
-0.00933918
-0.0118432
-0.0140662
-0.016014
-0.0176972
-0.0191305
-0.0203344
-0.0213495
-0.0222328
-0.0228947
-0.0227667
-0.0212764
0.0444326
0.0453441
0.0441068
0.041654
0.0389052
0.0360344
0.0329966
0.0297805
0.0264108
0.0229241
0.0193619
0.0157706
0.0122001
0.00870128
0.00532327
0.00211059
-0.000899002
-0.00367603
-0.00620019
-0.00846044
-0.0104544
-0.0121872
-0.0136699
-0.0149167
-0.0159476
-0.0168024
-0.0175386
-0.0180658
-0.0178042
-0.0161596
0.041386
0.0424584
0.0414994
0.0394023
0.0370267
0.0345287
0.0318631
0.0290179
0.026015
0.0228869
0.0196718
0.0164132
0.0131591
0.00995926
0.00686249
0.00391364
0.00115121
-0.00139445
-0.00370221
-0.00576038
-0.00756612
-0.00912433
-0.0104457
-0.0115442
-0.0124389
-0.0131677
-0.0137872
-0.0142129
-0.0138762
-0.0121627
0.0390928
0.0402144
0.0394328
0.0376013
0.0355122
0.0333015
0.0309244
0.0283699
0.0256574
0.0228164
0.019882
0.0168956
0.0139028
0.0109521
0.00809131
0.00536484
0.00281117
0.000460812
-0.00166485
-0.00355381
-0.00520294
-0.00661683
-0.00780581
-0.00878353
-0.00956806
-0.010195
-0.01072
-0.0110674
-0.0106889
-0.00894732
0.0372969
0.0384181
0.0377509
0.0361238
0.0342625
0.0322811
0.0301359
0.0278168
0.0253415
0.0227369
0.0200357
0.017277
0.0145047
0.0117655
0.00910616
0.00657026
0.00419586
0.00201322
4.36806e-05
-0.00170071
-0.00321669
-0.0045086
-0.00558654
-0.00646382
-0.00715765
-0.00770149
-0.00814991
-0.00843771
-0.00803878
-0.0062904
0.0358712
0.0369459
0.036354
0.0348864
0.033211
0.0314183
0.0294647
0.0273414
0.0250649
0.0226597
0.0201566
0.0175926
0.0150097
0.0124532
0.00996845
0.00759826
0.00537991
0.00334322
0.00150925
-0.000110085
-0.00151149
-0.00269919
-0.00368307
-0.00447623
-0.00509511
-0.00557115
-0.00595799
-0.00620074
-0.00579578
-0.0040514
0.0347029
0.035704
0.0351701
0.033834
0.0323116
0.0306775
0.0288862
0.0269297
0.0248234
0.02259
0.0202584
0.0178636
0.0154461
0.0130498
0.0107187
0.00849438
0.00641349
0.00450522
0.0027902
0.00128015
-2.17327e-05
-0.00111959
-0.00202319
-0.00274543
-0.00330211
-0.00372275
-0.00406007
-0.00426916
-0.0038679
-0.0021328
0.033724
0.0346318
0.0341389
0.0329259
0.0315309
0.0300316
0.0283809
0.0265696
0.024612
0.0225293
0.0203486
0.0181034
0.0158328
0.0135788
0.0113844
0.00929009
0.00733159
0.00553744
0.0039278
0.00251408
0.00129936
0.000279516
-0.00055511
-0.00121727
-0.0017222
-0.00209761
-0.00239526
-0.00257966
-0.00218898
-0.000465638
0.0328881
0.0336844
0.0332199
0.0321246
0.0308451
0.0294601
0.0279329
0.0262505
0.0244252
0.022477
0.0204315
0.0183206
0.0161819
0.0140562
0.011985
0.0100078
0.00815942
0.00646767
0.00495221
0.0036241
0.00248629
0.00153462
0.00075955
0.000148454
-0.000313392
-0.000651995
-0.000918078
-0.001085
-0.000709998
0.00100041
0.0321543
0.0328402
0.0323927
0.0313952
0.0302326
0.0289468
0.0275292
0.0259633
0.0242579
0.0224316
0.020509
0.0185205
0.0165021
0.0144933
0.0125345
0.010664
0.00891569
0.00731669
0.00588612
0.00463471
0.00356521
0.00267348
0.00195005
0.00138245
0.000956411
0.00064753
0.000406218
0.000250886
0.00060624
0.00230279
0.0314968
0.0320659
0.0316362
0.0307256
0.0296706
0.0284785
0.0271587
0.0256998
0.0241049
0.0223911
0.0205819
0.0187064
0.0167992
0.0148984
0.0130433
0.011271
0.00961462
0.00810044
0.00674708
0.00556491
0.00455652
0.00371777
0.00303929
0.00250874
0.00211231
0.0018271
0.00160475
0.00145607
0.00178847
0.00346977
0.0308968
0.0313421
0.0309327
0.0301032
0.0291412
0.0280463
0.0268126
0.0254526
0.0239615
0.0223531
0.02065
0.0188803
0.0170772
0.0152775
0.0135192
0.0118385
0.0102673
0.0088315
0.007549
0.00642986
0.00547652
0.00468483
0.00404556
0.00354653
0.00317432
0.00290749
0.00269902
0.00255272
0.00285923
0.00452277
0.0303305
0.0306588
0.0302714
0.0295136
0.0286346
0.0276386
0.0264859
0.0252166
0.0238236
0.0223152
0.0207127
0.0190434
0.017339
0.0156351
0.0139683
0.0123738
0.0108828
0.00952004
0.0083032
0.00724193
0.00633851
0.00558884
0.00498381
0.00451145
0.00415871
0.00390551
0.00370631
0.00355856
0.00383635
0.00547796
0.0297812
0.0300025
0.0296385
0.0289492
0.0281469
0.0272401
0.026174
0.0249864
0.023687
0.0222749
0.0207692
0.0191962
0.0175867
0.0159746
0.0143954
0.0128833
0.0114682
0.0101745
0.00901911
0.00801144
0.00715364
0.00644163
0.00586649
0.00541644
0.00507882
0.00483484
0.00464058
0.00448779
0.00473403
0.00634727
0.0292389
0.0293608
0.0290229
0.0284015
0.0276687
0.0268404
0.0258701
0.0247585
0.023548
0.0222297
0.0208182
0.019339
0.0178217
0.0162988
0.0148046
0.0133718
0.0120298
0.010802
0.0097048
0.00874727
0.00793143
0.00725329
0.00670411
0.00627236
0.00594575
0.00570675
0.00551317
0.00535181
0.0055635
0.00713912
0.0286961
0.0287224
0.0284121
0.027858
0.0271942
0.0264393
0.0255631
0.0245297
0.0234034
0.0221771
0.0208584
0.0194715
0.0180449
0.0166098
0.0151989
0.013844
0.0125731
0.0114089
0.0103674
0.00945717
0.00868021
0.00803256
0.00750572
0.00708843
0.0067688
0.00653047
0.00633322
0.00615964
0.0063335
0.00785888
0.0281455
0.0280777
0.0277979
0.0273108
0.0267156
0.0260324
0.0252435
0.0242973
0.0232495
0.0221142
0.0208882
0.0195933
0.0182571
0.0169094
0.0155814
0.0143034
0.0131027
0.0120009
0.0110132
0.0101481
0.00940742
0.00878718
0.00827919
0.00787252
0.0075557
0.00731353
0.00710794
0.00691819
0.00705054
0.00850926
0.0275774
0.0274204
0.0271737
0.026754
0.0262287
0.0256128
0.0249038
0.024057
0.0230842
0.0220385
0.0209059
0.0197037
0.0184585
0.0171989
0.0159543
0.0147538
0.0136231
0.0125831
0.0116483
0.0108267
0.0101199
0.0095241
0.00903144
0.00863136
0.00831287
0.0080619
0.00784279
0.00763245
0.00771909
0.00909054
0.0269822
0.0267429
0.0265322
0.0261796
0.0257241
0.0251777
0.0245452
0.0237992
0.022906
0.0219477
0.0209098
0.0198017
0.0186493
0.0174795
0.01632
0.0151983
0.0141386
0.0131607
0.0122783
0.0114989
0.0108239
0.0102497
0.0097686
0.00937069
0.00904548
0.00878011
0.00854155
0.00830552
0.00834161
0.00960089
0.0263495
0.0260381
0.0258671
0.0255818
0.0251965
0.0247217
0.0241652
0.0235162
0.0227127
0.0218389
0.0208974
0.0198863
0.0188293
0.0177522
0.0166806
0.0156401
0.0146534
0.0137388
0.012909
0.0121708
0.0115256
0.0109698
0.0104962
0.0100953
0.00975757
0.00947127
0.00920638
0.00893867
0.00891855
0.0100367
0.0256671
0.0252981
0.0251713
0.0249549
0.0246415
0.0242417
0.0237607
0.0232007
0.0225014
0.0217088
0.0208663
0.019956
0.0189982
0.0180177
0.017038
0.0160825
0.0151717
0.0143224
0.013546
0.0128486
0.0122311
0.0116901
0.011219
0.0108093
0.010452
0.0101371
0.00983777
0.00953134
0.00944824
0.0103928
0.0249179
0.0245129
0.0244365
0.0242917
0.0240526
0.0237304
0.0233274
0.0228519
0.0222657
0.0215568
0.0208144
0.0200091
0.0191554
0.0182767
0.0173943
0.0165287
0.0156981
0.014917
0.0141953
0.0135381
0.0129458
0.0124153
0.0119409
0.011515
0.01113
0.0107774
0.0104341
0.0100807
0.00992656
0.0106631
0.02408
0.0236689
0.0236506
0.0235825
0.0234223
0.023181
0.0228597
0.0224706
0.021997
0.0213819
0.0207396
0.0200442
0.0193003
0.0185299
0.0177512
0.0169817
0.0162364
0.0155271
0.0148617
0.0142439
0.0136736
0.0131482
0.0126633
0.0122124
0.0117897
0.0113887
0.0109905
0.010581
0.0103469
0.0108417
0.0231329
0.0227609
0.0228074
0.0228195
0.0227451
0.0225903
0.0223554
0.0220559
0.0216896
0.0211797
0.0206374
0.0200578
0.0194308
0.0187763
0.0181098
0.0174444
0.0167914
0.0161589
0.015552
0.0149725
0.0144198
0.0138931
0.013389
0.0129027
0.0124304
0.0119684
0.011503
0.0110275
0.0107029
0.010925
0.0220425
0.0218183
0.0219471
0.0220299
0.022039
0.0219716
0.0218227
0.0216092
0.0213399
0.0209456
0.0204994
0.02004
0.0195384
0.0190114
0.0184708
0.0179242
0.0173773
0.0168329
0.0162918
0.0157529
0.0152142
0.0146799
0.0141464
0.0136107
0.0130727
0.0125328
0.0119837
0.0114281
0.0109951
0.010913
0.0205997
0.0207832
0.0210981
0.021252
0.0213277
0.0213359
0.0212645
0.0211242
0.0209365
0.0206656
0.020316
0.0199808
0.0196176
0.0192374
0.0188462
0.0184438
0.0180269
0.0175904
0.0171286
0.0166366
0.0161134
0.0155585
0.0149781
0.0143718
0.0137444
0.0131017
0.0124449
0.0117847
0.011208
0.010791
0.0181192
0.0189148
0.0197145
0.0201153
0.0203441
0.0204854
0.0205413
0.0205208
0.0204528
0.0203346
0.0201249
0.0199378
0.0197324
0.0195115
0.0192738
0.0190102
0.0187082
0.0183568
0.0179453
0.0174708
0.0169513
0.0163179
0.0156533
0.0149486
0.0142118
0.0134542
0.012684
0.0119156
0.0111893
0.0104848
0.0142096
0.0148022
0.0162705
0.0173554
0.0181418
0.0187667
0.0192564
0.0196223
0.0198922
0.0200766
0.0201386
0.0201523
0.0200897
0.0199469
0.0197225
0.019413
0.0190154
0.0185326
0.0179678
0.017321
0.0165868
0.0158698
0.0151148
0.0143371
0.0135567
0.0127864
0.0120357
0.0113195
0.0106477
0.00996498
-0.0405287
-0.0325854
-0.0265873
-0.0217167
-0.0176963
-0.0143494
-0.0115259
-0.00911657
-0.00703819
-0.00522752
-0.00363591
-0.00222539
-0.000965958
0.000166447
0.00119131
0.0021246
0.00297946
0.00376667
0.004495
0.00517131
0.00580055
0.00638569
0.00692766
0.00742514
0.00787426
0.00826669
0.00859251
0.00884945
0.00903915
0.00908525
-0.0406799
-0.0326093
-0.0263166
-0.021316
-0.0172199
-0.0138177