/*--------------------------------*- C++ -*----------------------------------*\
  =========                 |
  \\      /  F ield         | OpenFOAM: The Open Source CFD Toolbox
   \\    /   O peration     | Website:  https://openfoam.org
    \\  /    A nd           | Version:  12
     \\/     M anipulation  |
\*---------------------------------------------------------------------------*/
FoamFile
{
    format      ascii;
    class       surfaceScalarField;
    location    "320";
    object      phi;
}
// * * * * * * * * * * * * * * * * * * * * * * * * * * * * * * * * * * * * * //

dimensions      [0 3 -1 0 0 0 0];

internalField   nonuniform List<scalar> 
13275
(
0.369023
-0.00462585
0.369481
-0.0114853
0.369794
-0.0154061
0.369909
-0.0173604
-0.0180304
0.369849
0.351098
-0.00489894
0.351461
-0.0118474
0.351681
-0.0156269
0.351643
-0.0173216
-0.0176328
0.351245
0.334002
-0.00502184
0.334077
-0.0119231
0.333968
-0.0155178
0.333634
-0.0169875
-0.0170943
0.333096
0.317721
-0.00499242
0.317511
-0.0117124
0.317103
-0.01511
0.316533
-0.0164174
-0.0164199
0.315858
0.302245
-0.00483563
0.30179
-0.0112573
0.301125
-0.0144449
0.300336
-0.0156287
-0.0155831
0.299499
0.287534
-0.00457544
0.286872
-0.0105955
0.285978
-0.0135509
0.284977
-0.0146277
-0.0145641
0.283958
0.273546
-0.00422915
0.272706
-0.00975558
0.271606
-0.0124509
0.270403
-0.0134241
-0.0133584
0.269197
0.260244
-0.00381048
0.259251
-0.00876344
0.25797
-0.0111696
0.256582
-0.0120356
-0.0119758
0.255199
0.247593
-0.00333254
0.246476
-0.00764607
0.245043
-0.00973701
0.243497
-0.0104894
-0.0104391
0.24196
0.235564
-0.00280909
0.234352
-0.00643307
0.232802
-0.00818794
0.231133
-0.00882038
-0.00878043
0.229475
0.224129
-0.00225449
0.222852
-0.00515585
0.221225
-0.00656071
0.219472
-0.00706806
-0.00703812
0.21773
0.213259
-0.00168321
0.211949
-0.0038458
0.210283
-0.00489421
0.208488
-0.00527345
-0.00525242
0.206702
0.202927
-0.0011091
0.201614
-0.00253243
0.199945
-0.00322518
0.198147
-0.00347552
-0.00346213
0.196357
0.193107
-0.000544754
0.191817
-0.0012422
0.190177
-0.00158591
0.18841
-0.00170855
-0.00170185
0.18665
0.183771
-1.30219e-07
0.18253
-2.99009e-07
0.180944
-3.80644e-07
0.179236
-4.05091e-07
-3.97299e-07
0.177534
0.183771
0.000544493
0.18253
0.0012416
0.180944
0.00158515
0.179236
0.00170775
0.00170105
0.177534
0.193107
0.00110884
0.191817
0.00253183
0.190177
0.00322442
0.18841
0.00347471
0.00346134
0.18665
0.202927
0.00168295
0.201614
0.0038452
0.199945
0.00489346
0.198147
0.00527264
0.00525163
0.196357
0.213259
0.00225424
0.211949
0.00515526
0.210283
0.00655997
0.208488
0.00706726
0.00703734
0.206702
0.224129
0.00280883
0.222852
0.00643249
0.221225
0.00818719
0.219472
0.00881959
0.00877966
0.21773
0.235564
0.00333229
0.234351
0.00764549
0.232802
0.00973627
0.231133
0.0104887
0.0104383
0.229475
0.247593
0.00381023
0.246476
0.00876287
0.245043
0.0111689
0.243497
0.0120348
0.0119751
0.24196
0.260244
0.00422891
0.259251
0.00975501
0.25797
0.0124501
0.256582
0.0134233
0.0133576
0.255199
0.273546
0.0045752
0.272706
0.0105949
0.271606
0.0135501
0.270403
0.0146269
0.0145634
0.269197
0.287534
0.0048354
0.286872
0.0112568
0.285978
0.0144442
0.284977
0.0156279
0.0155824
0.283958
0.302245
0.00499219
0.30179
0.0117118
0.301125
0.0151094
0.300336
0.0164167
0.0164192
0.299499
0.317721
0.00502162
0.317511
0.0119226
0.317103
0.0155171
0.316533
0.0169868
0.0170936
0.315858
0.334002
0.00489873
0.334077
0.0118469
0.333968
0.0156263
0.333634
0.0173209
0.0176321
0.333096
0.351098
0.00462565
0.35146
0.0114848
0.351681
0.0154054
0.351642
0.0173597
0.0180297
0.351245
0.369023
0.369481
0.369794
0.369909
0.369849
0.197357
-0.0505305
-0.197397
0.196944
-0.0577709
0.195919
-0.064042
0.194264
-0.0695591
0.192035
-0.074287
0.189302
-0.0781601
0.186137
-0.0810876
0.182617
-0.0829464
0.17883
-0.0835924
0.174887
-0.0829762
0.170876
-0.0809016
0.166952
-0.0772311
0.163258
-0.072048
0.15994
-0.0654429
0.157128
-0.0575941
0.154927
-0.0487573
0.153409
-0.0392443
0.152606
-0.029393
0.152514
-0.0195391
0.153091
-0.00999081
0.154249
-0.000976573
0.15595
0.00729038
0.158083
0.0147223
0.160556
0.0212263
0.163282
0.0267833
0.16618
0.0314125
0.169182
0.0351599
0.172224
0.0380872
0.175248
0.0402645
0.0417572
0.178164
0.194726
-0.0506495
-0.194607
0.194061
-0.0571068
0.192707
-0.062688
0.190763
-0.0676148
0.188306
-0.07183
0.185409
-0.0752629
0.182138
-0.0778169
0.178564
-0.0793719
0.174771
-0.0797993
0.170856
-0.0790615
0.166899
-0.0769449
0.163048
-0.0733798
0.159434
-0.0684344
0.156189
-0.0621974
0.15343
-0.0548351
0.151254
-0.0465812
0.149726
-0.0377172
0.148881
-0.0285473
0.148713
-0.0193715
0.149185
-0.0104622
0.150252
-0.0020443
0.151826
0.00571681
0.153838
0.0127101
0.1562
0.0188646
0.158827
0.0241561
0.161643
0.0285966
0.16458
0.0322228
0.167581
0.0350861
0.17059
0.037256
0.0388654
0.173481
0.191409
-0.0503904
-0.191668
0.190441
-0.0561397
0.188874
-0.0611203
0.186784
-0.0655255
0.18424
-0.0692856
0.1813
-0.0723225
0.178021
-0.074538
0.174468
-0.0758189
0.170726
-0.0760574
0.166873
-0.0752088
0.162994
-0.0730655
0.159225
-0.0696109
0.155688
-0.0648974
0.152503
-0.059013
0.149782
-0.0521135
0.147613
-0.0444129
0.146062
-0.036166
0.145161
-0.0276458
0.14491
-0.0191206
0.145281
-0.0108336
0.146224
-0.0029875
0.147673
0.00426779
0.149556
0.0108275
0.151792
0.0166285
0.154302
0.021646
0.157012
0.0258871
0.159854
0.0293806
0.162772
0.0321679
0.165715
0.0343134
0.0360198
0.16856
0.187981
-0.0497899
-0.188582
0.186757
-0.0549154
0.185007
-0.0593703
0.182791
-0.0633098
0.180166
-0.0666605
0.177184
-0.0693405
0.173899
-0.0712525
0.170368
-0.0722886
0.16668
-0.0723686
0.162891
-0.0714203
0.159094
-0.0692686
0.15541
-0.065927
0.15195
-0.0614373
0.148824
-0.0558868
0.146133
-0.0494223
0.143961
-0.0422407
0.142368
-0.0345734
0.141389
-0.0266665
0.141028
-0.01876
0.141266
-0.0110711
0.142059
-0.00378038
0.143351
0.00297552
0.145076
0.00910222
0.147162
0.0145427
0.149534
0.0192736
0.152123
0.0232989
0.154862
0.0266417
0.157695
0.0293344
0.160575
0.0314339
0.0332091
0.163385
0.184473
-0.0488976
-0.185365
0.183024
-0.0534662
0.181106
-0.0574522
0.178771
-0.0609753
0.17607
-0.0639591
0.173049
-0.0663194
0.169758
-0.0679614
0.166253
-0.0687842
0.162615
-0.0687307
0.15889
-0.0676948
0.155173
-0.0655522
0.151571
-0.0623247
0.148184
-0.0580502
0.145112
-0.0528147
0.142447
-0.0467571
0.140266
-0.0400599
0.138627
-0.0329343
0.137563
-0.0256029
0.137084
-0.0182813
0.137177
-0.0111632
0.137806
-0.00440946
0.138924
0.00185747
0.140472
0.00755337
0.142387
0.0126278
0.144602
0.0170595
0.147049
0.0208518
0.149667
0.0240234
0.152402
0.0265999
0.155206
0.0286291
0.0304374
0.157978
0.180853
-0.0477422
-0.182008
0.1792
-0.0518127
0.17713
-0.0553827
0.17469
-0.0585353
0.171922
-0.0611915
0.16887
-0.0632667
0.165578
-0.0646701
0.162104
-0.0653095
0.158513
-0.0651399
0.15485
-0.0640315
0.151209
-0.0619115
0.147683
-0.0587986
0.144363
-0.0547307
0.141341
-0.0497925
0.1387
-0.0441159
0.136511
-0.0378706
0.134827
-0.0312508
0.133683
-0.0244584
0.133089
-0.0176876
0.133037
-0.0111117
0.133502
-0.00487366
0.134441
0.000918012
0.135805
0.00618892
0.137538
0.0108952
0.139579
0.015019
0.141867
0.0185634
0.144345
0.0215451
0.146961
0.0239841
0.14967
0.0259206
0.0277228
0.152384
0.177101
-0.0463484
-0.178494
0.175264
-0.0499762
0.173061
-0.05318
0.170531
-0.0560045
0.167708
-0.058369
0.164632
-0.0601906
0.161346
-0.0613838
0.157903
-0.0618669
0.154356
-0.0615926
0.150753
-0.0604287
0.147183
-0.0583415
0.143728
-0.0553434
0.140471
-0.0514741
0.137496
-0.0468173
0.134878
-0.0414983
0.132684
-0.0356759
0.130962
-0.0295288
0.129745
-0.0232412
0.129045
-0.0169885
0.12886
-0.0109258
0.129166
-0.00518007
0.129931
0.000153017
0.131111
0.00500857
0.132657
0.00934919
0.134516
0.0131605
0.136632
0.0164468
0.138954
0.0192231
0.141432
0.0215065
0.144022
0.0233304
0.0250891
0.146656
0.173207
-0.0447425
-0.174813
0.17121
-0.0479797
0.168892
-0.0508622
0.166284
-0.0533964
0.163417
-0.0555016
0.160325
-0.0570982
0.157046
-0.0581055
0.153636
-0.0584565
0.15013
-0.0580866
0.146586
-0.0568846
0.143082
-0.0548375
0.139693
-0.0519543
0.136495
-0.0482769
0.133566
-0.0438875
0.130973
-0.0389059
0.128778
-0.0334805
0.127025
-0.0277765
0.125747
-0.0219624
0.124955
-0.0161968
0.124648
-0.0106187
0.124808
-0.00534088
0.125409
-0.000447366
0.126412
0.00400581
0.127773
0.00798733
0.129447
0.0114865
0.131385
0.0145089
0.133539
0.0170693
0.135863
0.0191826
0.138316
0.0208779
0.0225597
0.140845
0.169166
-0.0429517
-0.170956
0.167032
-0.045846
0.164616
-0.0484466
0.161943
-0.0507236
0.15904
-0.0525985
0.155938
-0.0539954
0.152671
-0.0548385
0.14929
-0.0550755
0.145824
-0.0546214
0.142337
-0.0533968
0.138895
-0.0513957
0.135568
-0.0486276
0.132428
-0.0451364
0.129543
-0.0410029
0.126978
-0.0363411
0.124788
-0.0312903
0.123015
-0.0260032
0.121687
-0.0206341
0.120817
-0.0153268
0.120404
-0.0102058
0.120434
-0.00537131
0.120884
-0.000896832
0.12172
0.00316957
0.122905
0.0068022
0.124398
0.00999382
0.126155
0.0127516
0.128134
0.01509
0.130293
0.0170235
0.132593
0.018578
0.0201555
0.134997
0.164973
-0.0410027
-0.166922
0.162724
-0.0435965
0.160226
-0.0459487
0.1575
-0.0479976
0.154569
-0.0496672
0.15146
-0.0508868
0.148209
-0.0515874
0.144856
-0.0517224
0.141431
-0.0511969
0.137997
-0.0499624
0.134614
-0.048013
0.131347
-0.045361
0.128263
-0.0420518
0.125424
-0.0381644
0.122891
-0.0338077
0.120713
-0.0291121
0.118928
-0.0242189
0.117564
-0.0192693
0.11663
-0.0143936
0.116128
-0.0097036
0.116045
-0.00528813
0.11636
-0.00121137
0.117043
0.00248574
0.118063
0.00578251
0.119382
0.00867484
0.120962
0.0111713
0.122766
0.0132867
0.124754
0.015035
0.126891
0.0164409
0.0178935
0.129153
0.160626
-0.038921
-0.162708
0.158281
-0.041251
0.155715
-0.0433832
0.152946
-0.0452287
0.149994
-0.046715
0.146884
-0.0477768
0.143652
-0.0483547
0.140325
-0.048396
0.136942
-0.0478136
0.133559
-0.0465798
0.130234
-0.0446877
0.127026
-0.0421532
0.123997
-0.0390229
0.121207
-0.0353741
0.11871
-0.0313101
0.116551
-0.0269531
0.114765
-0.0224335
0.113376
-0.0178805
0.112395
-0.0134122
0.11182
-0.00912867
0.111641
-0.00510866
0.111837
-0.00140807
0.112385
0.0019384
0.113253
0.00491445
0.114409
0.00751866
0.115819
0.00976091
0.11745
0.0116561
0.119267
0.0132183
0.121236
0.0144719
0.0157854
0.123344
0.15612
-0.0367297
-0.158311
0.153696
-0.0388275
0.151077
-0.0407634
0.148275
-0.042427
0.145309
-0.0437494
0.142202
-0.0446699
0.138989
-0.0451409
0.13569
-0.0450978
0.13235
-0.0444729
0.129018
-0.0432486
0.12575
-0.0414194
0.122601
-0.0390044
0.11963
-0.0360513
0.116891
-0.032635
0.114434
-0.0288535
0.112301
-0.0248207
0.110525
-0.020657
0.109125
-0.0164803
0.10811
-0.012397
0.107478
-0.00849712
0.107219
-0.00484999
0.107316
-0.00150429
0.107743
0.00151078
0.108475
0.00418263
0.109482
0.00651207
0.110733
0.00850998
0.112197
0.0101913
0.113845
0.0115704
0.115646
0.0126715
0.0138379
0.117593
0.15145
-0.0344505
-0.153729
0.148965
-0.0363422
0.146303
-0.0381016
0.143477
-0.0396013
0.140504
-0.0407764
0.137406
-0.0415722
0.134213
-0.0419475
0.130945
-0.0418302
0.127648
-0.0411758
0.124369
-0.0399693
0.121158
-0.0382087
0.11807
-0.0359161
0.115158
-0.0331393
0.112474
-0.0299509
0.110064
-0.0264433
0.107966
-0.0227225
0.106208
-0.0188992
0.104808
-0.0150802
0.103773
-0.0113619
0.1031
-0.00782427
0.102778
-0.00452858
0.102791
-0.00151699
0.103116
0.00118602
0.103727
0.00357099
0.104599
0.00564051
0.105703
0.0074061
0.107012
0.00888266
0.108497
0.0100845
0.110132
0.0110364
0.0120532
0.111917
0.14661
-0.0321028
-0.148958
0.144078
-0.0338094
0.141385
-0.035409
0.138544
-0.0367606
0.135571
-0.037803
0.132488
-0.0384893
0.129317
-0.0387761
0.126083
-0.038597
0.122832
-0.0379242
0.119606
-0.0367438
0.116455
-0.0350578
0.11343
-0.0328907
0.110581
-0.0302903
0.107957
-0.0273263
0.105599
-0.0240857
0.103543
-0.0206663
0.101813
-0.0171693
0.100424
-0.0136916
0.0993819
-0.0103197
0.0986821
-0.00712447
0.0983135
-0.00415992
0.0982589
-0.0014624
0.0984972
0.00094767
0.0990048
0.00306342
0.0997565
0.00488877
0.100727
0.00643554
0.101891
0.00771838
0.103224
0.00875158
0.104701
0.00955998
0.0104293
0.106325
0.141593
-0.0297038
-0.143992
0.139026
-0.0312426
0.136314
-0.0326972
0.133468
-0.033914
0.1305
-0.0348359
0.127436
-0.035425
0.124291
-0.0356308
0.121097
-0.035403
0.117894
-0.0347216
0.114726
-0.0335752
0.111638
-0.0319699
0.108679
-0.0299319
0.105897
-0.0275087
0.103338
-0.0247666
0.101039
-0.0217869
0.0990319
-0.0186595
0.0973391
-0.0154764
0.0959724
-0.012325
0.094935
-0.00928221
0.0942215
-0.00641098
0.09382
-0.0037584
0.0937133
-0.00135575
0.0938809
0.000780065
0.0943001
0.00264424
0.0949472
0.00424163
0.0957988
0.00558404
0.0968315
0.00668563
0.0980226
0.00756051
0.0993491
0.00823341
0.0089609
0.100818
0.136386
-0.0272687
-0.138821
0.133799
-0.0286554
0.131079
-0.0299769
0.128235
-0.0310702
0.125283
-0.0318835
0.122241
-0.0323836
0.119128
-0.0325176
0.115978
-0.0322528
0.112828
-0.031572
0.109721
-0.0304678
0.1067
-0.0289493
0.103813
-0.0270445
0.101104
-0.0247996
0.0986145
-0.0222776
0.0963812
-0.0195535
0.0944314
-0.0167097
0.0927843
-0.0138293
0.0914494
-0.0109901
0.0904278
-0.00826062
0.0897129
-0.00569602
0.0892917
-0.00333726
0.0891471
-0.00121109
0.0892586
0.000668556
0.0896043
0.00229855
0.0901616
0.00368428
0.0909084
0.00483729
0.091823
0.00577103
0.0928843
0.00649923
0.0940715
0.00704616
0.00764016
0.0953923
0.130978
-0.0248119
-0.133434
0.128384
-0.0260615
0.125666
-0.0272593
0.122834
-0.0282381
0.119904
-0.0289536
0.116891
-0.0293704
0.113817
-0.0294438
0.110717
-0.0291524
0.107626
-0.0284812
0.104585
-0.0274269
0.101637
-0.0260016
0.0988267
-0.024234
0.096196
-0.022169
0.0937839
-0.0198654
0.0916229
-0.0173925
0.0897377
-0.0148246
0.0881446
-0.0122361
0.0868507
-0.00969625
0.0858551
-0.00726504
0.0851498
-0.00499069
0.0847211
-0.00290854
0.0845513
-0.0010413
0.0846202
0.000599647
0.0849063
0.00201243
0.0853879
0.00320269
0.0860437
0.00418142
0.0868536
0.00496121
0.0877976
0.0055552
0.0888569
0.00598684
0.00645766
0.0900394
0.125351
-0.0223481
-0.127815
0.122764
-0.0234743
0.12006
-0.0245554
0.11725
-0.0254277
0.114349
-0.0260533
0.111372
-0.0263932
0.108346
-0.0264173
0.105302
-0.0261087
0.102277
-0.0254558
0.0993089
-0.0244592
0.0964406
-0.0231333
0.0937137
-0.0215071
0.0911682
-0.0196235
0.0888398
-0.0175371
0.0867582
-0.0153109
0.0849451
-0.0130115
0.0834139
-0.0107049
0.0821696
-0.00845193
0.0812094
-0.00630477
0.0805238
-0.0043051
0.0800984
-0.00248312
0.079915
-0.000857991
0.0799536
0.000561073
0.0801929
0.00177313
0.0806118
0.0027838
0.0811899
0.00360332
0.0819079
0.00424327
0.0827471
0.00471599
0.0836901
0.00504377
0.00540307
0.0847447
0.119487
-0.019893
-0.121942
0.116919
-0.0209062
0.11424
-0.0218763
0.111462
-0.02265
0.108599
-0.0231901
0.105668
-0.0234621
0.102698
-0.023447
0.0997191
-0.0231301
0.0967673
-0.022504
0.0938808
-0.0215727
0.0910997
-0.0203522
0.0884639
-0.0188713
0.0860109
-0.0171705
0.0837737
-0.0152999
0.0817788
-0.013316
0.0800452
-0.0112779
0.0785837
-0.00924341
0.077397
-0.00726524
0.0764806
-0.00538836
0.0758238
-0.00364834
0.0754115
-0.00207074
0.075225
-0.000671545
0.0752442
0.000541842
0.0754482
0.00156913
0.0758163
0.00241571
0.0763288
0.00309088
0.076967
0.00360508
0.0777133
0.00396968
0.0785516
0.0042055
0.00446573
0.0794889
0.113359
-0.0174625
-0.11579
0.110823
-0.0183702
0.108181
-0.019234
0.105446
-0.0199151
0.102631
-0.0203747
0.0997571
-0.0205887
0.0968531
-0.0205431
0.0939495
-0.0202264
0.0910808
-0.0196354
0.0882847
-0.0187765
0.0855997
-0.0176672
0.0830636
-0.0163352
0.0807114
-0.0148183
0.0785731
-0.0131616
0.0766726
-0.0114154
0.0750259
-0.00963124
0.0736415
-0.00785897
0.07252
-0.00614371
0.0716552
-0.0045236
0.0710354
-0.0030286
0.0706448
-0.00168005
0.0704643
-0.000491131
0.0704739
0.000532252
0.0706528
0.00139024
0.0709807
0.00208779
0.0714385
0.00263316
0.072008
0.00303554
0.0726725
0.00330521
0.0734168
0.00346119
0.00363527
0.0742472
0.106932
-0.0150731
-0.109321
0.104441
-0.0158797
0.10185
-0.0166428
0.0991697
-0.0172347
0.0964156
-0.0176207
0.0936121
-0.0177852
0.0907862
-0.0177172
0.0879689
-0.0174091
0.0851945
-0.0168609
0.0824994
-0.0160815
0.0799207
-0.0150885
0.0774939
-0.0139085
0.0752515
-0.0125759
0.0732207
-0.0111309
0.0714225
-0.00961715
0.0698703
-0.00807906
0.0685702
-0.00655886
0.0675209
-0.00509444
0.0667149
-0.00371761
0.0661395
-0.00245315
0.0657781
-0.00131862
0.0656116
-0.000324706
0.06562
0.000523914
0.0657826
0.00122762
0.0660796
0.00179079
0.0664922
0.00222058
0.0670028
0.00252486
0.0675954
0.00271267
0.0682555
0.00280104
0.00290208
0.0689887
0.100159
-0.0127423
-0.10249
0.0977309
-0.0134517
0.0952054
-0.0141173
0.0925939
-0.0146231
0.0899163
-0.0149431
0.0871967
-0.0150657
0.0844626
-0.014983
0.081745
-0.0146914
0.0790777
-0.0141937
0.0764961
-0.0134999
0.0740354
-0.0126277
0.0717289
-0.011602
0.0696064
-0.0104534
0.0676924
-0.00921683
0.0660049
-0.00792966
0.0645549
-0.0066291
0.0633463
-0.00535024
0.0623761
-0.00412419
0.0616354
-0.0029769
0.0611107
-0.00192845
0.060785
-0.000992962
0.0606393
-0.000179
0.0606534
0.000509795
0.0608072
0.00107388
0.061081
0.00151698
0.0614565
0.00184506
0.0619167
0.00206467
0.0624458
0.00218355
0.0630303
0.00221653
0.00225766
0.0636747
0.0929795
-0.0104901
-0.0952318
0.0906325
-0.0111047
0.0881892
-0.0116739
0.0856647
-0.0120987
0.0830808
-0.0123592
0.0804618
-0.0124467
0.0778358
-0.012357
0.0752337
-0.0120894
0.0726889
-0.0116488
0.0702354
-0.0110463
0.0679064
-0.0102987
0.0657329
-0.00942849
0.0637418
-0.00846229
0.0619548
-0.00742985
0.0603872
-0.0063621
0.0590476
-0.00528949
0.0579377
-0.00424031
0.0570529
-0.00323943
0.0563834
-0.00230741
0.0559151
-0.00146007
0.0556306
-0.000708528
0.0555111
-5.94613e-05
0.0555366
0.000484307
0.0556873
0.000923199
0.055944
0.00126023
0.0562889
0.0015002
0.0567052
0.00164833
0.0571777
0.00171102
0.0576935
0.0017008
0.00169508
0.0582561
0.0853095
-0.00833929
-0.0874603
0.0830637
-0.00885886
0.0807239
-0.00933407
0.0783079
-0.00968269
0.075838
-0.00988928
0.0733397
-0.00994842
0.0708415
-0.00985878
0.0683743
-0.00962222
0.0659705
-0.00924508
0.0636626
-0.00873841
0.0614817
-0.00811783
0.0594561
-0.00740287
0.0576099
-0.00661606
0.0559618
-0.00578174
0.0545244
-0.00492471
0.0533038
-0.00406896
0.0523
-0.00323651
0.0515071
-0.00244646
0.0509142
-0.00171453
0.0505069
-0.00105277
0.050268
-0.000469607
0.0501787
2.98645e-05
0.0502195
0.000443479
0.0503711
0.000771545
0.050615
0.00101636
0.0509336
0.00118158
0.0513108
0.0012712
0.0517315
0.00129026
0.0521834
0.00124894
0.00120936
0.0526691
0.0770271
-0.00631566
-0.0790508
0.0749086
-0.00674033
0.0726988
-0.00712431
0.0704169
-0.00740078
0.0680865
-0.00755887
0.0657342
-0.00759606
0.0633887
-0.00751332
0.0610807
-0.00731418
0.0588412
-0.0070056
0.0567008
-0.00659805
0.0546882
-0.00610523
0.0528288
-0.00554345
0.0511436
-0.00493086
0.0496483
-0.0042865
0.048353
-0.00362933
0.0472613
-0.00297733
0.0463716
-0.00234675
0.0456767
-0.00175158
0.0451654
-0.0012032
0.0448229
-0.00071036
0.0446325
-0.000279186
0.0445758
8.65708e-05
0.044634
0.000385263
0.0447885
0.000617032
0.0450214
0.000783484
0.0453158
0.000887226
0.0456559
0.000931119
0.0460272
0.000918933
0.0464176
0.000858533
0.000797915
0.046829
0.0679536
-0.0044525
-0.0698168
0.0659963
-0.00478296
0.0639497
-0.00507776
0.0618351
-0.00528617
0.0596776
-0.00540139
0.0575046
-0.00542303
0.0553448
-0.00535351
0.0532278
-0.00519719
0.051183
-0.00496085
0.0492387
-0.00465369
0.0474205
-0.00428699
0.0457506
-0.00387355
0.0442468
-0.00342707
0.0429218
-0.00296149
0.0417827
-0.00249031
0.0408315
-0.00202606
0.0400646
-0.00157988
0.0394743
-0.00116125
0.0390489
-0.000777853
0.0387742
-0.000435594
0.0386336
-0.000138665
0.0386099
0.000110296
0.0386851
0.00031004
0.0388416
0.000460524
0.0390624
0.000562717
0.0393313
0.0006183
0.0396333
0.000629156
0.0399543
0.000597928
0.0402826
0.000530276
0.000461196
0.0406193
0.0578098
-0.0027938
-0.0594685
0.0560583
-0.00303149
0.0542209
-0.00324036
0.0523206
-0.00338581
0.0503834
-0.00346427
0.048437
-0.00347658
0.0465091
-0.00342567
0.0446278
-0.00331585
0.0428199
-0.00315298
0.0411106
-0.00294441
0.0395222
-0.00269857
0.0380732
-0.00242458
0.036778
-0.0021318
0.0356459
-0.00182941
0.0346816
-0.001526
0.0338849
-0.00122937
0.0332513
-0.000946273
0.0327725
-0.000682421
0.032437
-0.000442424
0.0322313
-0.000229857
0.03214
-4.73228e-05
0.0321468
0.000103439
0.0322354
0.000221503
0.0323892
0.000306647
0.0325927
0.000359291
0.0328306
0.000380329
0.0330889
0.00037084
0.0333543
0.000332526
0.0336156
0.000269051
0.000203476
0.0338733
0.046132
-0.00140447
-0.0475213
0.0446543
-0.00155381
0.0430968
-0.00168288
0.0414832
-0.00177219
0.0398393
-0.00182038
0.0381914
-0.00182862
0.0365652
-0.00179954
0.034986
-0.00173663
0.0334773
-0.00164423
0.0320602
-0.00152732
0.0307529
-0.00139125
0.0295698
-0.0012415
0.0285214
-0.00108339
0.0276139
-0.000921902
0.0268494
-0.000761503
0.0262261
-0.000606103
0.0257388
-0.000459021
0.0253794
-0.000323008
0.0251373
-0.000200306
0.0250002
-9.27035e-05
0.0249544
-1.53253e-06
0.0249856
7.22182e-05
0.0250792
0.000127866
0.0252208
0.000165091
0.0253962
0.000183911
0.0255919
0.000184599
0.0257951
0.000167601
0.0259938
0.000133853
0.0261775
8.53312e-05
3.44156e-05
0.0263466
0.0320925
-0.000398925
-0.033098
0.0310085
-0.00046987
0.0298554
-0.000529737
0.0286539
-0.000570758
0.027427
-0.000593424
0.0261974
-0.000599087
0.0249876
-0.000589665
0.0238182
-0.00056727
0.0227081
-0.000534155
0.0216735
-0.000492641
0.0207272
-0.00044501
0.0198791
-0.000393411
0.0191355
-0.000339786
0.0184994
-0.000285823
0.0179709
-0.000232953
0.0175471
-0.000182356
0.0172231
-0.000134996
0.0169918
-9.1661e-05
0.0168445
-5.30132e-05
0.0167715
-1.97167e-05
0.0167624
7.59001e-06
0.0168048
2.97395e-05
0.0168877
4.50093e-05
0.0169992
5.35783e-05
0.0171278
5.52809e-05
0.0172625
4.99813e-05
0.0173925
3.75609e-05
0.0175084
1.80059e-05
0.017602
-8.33514e-06
-3.52834e-05
0.0176717
0.014156
-0.014555
0.0136862
0.0131564
0.0125857
0.0119922
0.0113931
0.0108035
0.0102362
0.00970206
0.00920942
0.00876441
0.008371
0.00803121
0.00774539
0.00751243
0.00733008
0.00719508
0.00710342
0.00705041
0.00703069
0.00703828
0.00706802
0.00711303
0.00716661
0.00722189
0.00727187
0.00730943
0.00732744
0.0073191
0.00728382
0.351225
-0.178773
0.333837
-0.177218
0.317076
-0.174907
0.300819
-0.172325
0.28496
-0.169506
0.269412
-0.166461
0.254122
-0.163204
0.239057
-0.159748
0.224202
-0.156101
0.209551
-0.152271
0.195105
-0.148263
0.180874
-0.14408
0.166872
-0.139727
0.153117
-0.135202
0.139629
-0.130504
0.126435
-0.125628
0.113563
-0.120562
0.101044
-0.115296
0.0889119
-0.10981
0.0772044
-0.104082
0.0659635
-0.0980805
0.0552378
-0.091764
0.045083
-0.085077
0.0355657
-0.077943
0.0267681
-0.0702532
0.018798
-0.0618467
0.0118051
-0.0524755
0.00601771
-0.041734
0.00183769
-0.028918
-0.0127173
0.334628
-0.162157
0.318167
-0.160757
0.302124
-0.158864
0.286431
-0.156632
0.27103
-0.154105
0.255887
-0.151318
0.240982
-0.148299
0.226303
-0.145069
0.211848
-0.141646
0.197618
-0.138042
0.183624
-0.134268
0.169877
-0.130333
0.156393
-0.126243
0.143192
-0.122001
0.130292
-0.117605
0.117719
-0.113054
0.105496
-0.108339
0.0936505
-0.10345
0.082213
-0.0983725
0.0712162
-0.0930852
0.0606969
-0.0875611
0.050697
-0.0817642
0.0412657
-0.0756457
0.0324617
-0.069139
0.0243582
-0.0621497
0.0170517
-0.0545401
0.010677
-0.0461008
0.00543846
-0.0364955
0.00167964
-0.0251591
-0.0110376
0.317358
-0.146419
0.301796
-0.145194
0.28649
-0.143558
0.271431
-0.141573
0.256605
-0.139279
0.242002
-0.136715
0.227619
-0.133916
0.213457
-0.130907
0.199521
-0.12771
0.185823
-0.124343
0.172374
-0.12082
0.159192
-0.117151
0.146292
-0.113344
0.133694
-0.109403
0.121418
-0.105329
0.109484
-0.10112
0.0979166
-0.0967715
0.0867393
-0.0922731
0.0759791
-0.0876124
0.0656655
-0.0827715
0.0558312
-0.0777269
0.0465139
-0.0724468
0.0377572
-0.066889
0.029614
-0.0609958
0.0221504
-0.054686
0.0154532
-0.047843
0.00964386
-0.0402915
0.00490315
-0.0317548
0.00152384
-0.0217798
-0.00951379
0.300886
-0.131447
0.286051
-0.130359
0.271388
-0.128895
0.256907
-0.127092
0.242617
-0.124988
0.228526
-0.122625
0.214647
-0.120036
0.200989
-0.11725
0.187568
-0.114289
0.174398
-0.111173
0.161495
-0.107917
0.148877
-0.104532
0.13656
-0.101027
0.124562
-0.097405
0.112902
-0.0936691
0.1016
-0.0898177
0.0906745
-0.0858463
0.0801488
-0.0817474
0.0700461
-0.0775097
0.0603926
-0.073118
0.0512174
-0.0685516
0.0425538
-0.0637832
0.034441
-0.0587763
0.0269264
-0.0534812
0.0200694
-0.0478291
0.0139482
-0.0417217
0.00867053
-0.0350138
0.00439473
-0.027479
0.00136774
-0.0187528
-0.00814605
0.285161
-0.117108
0.270923
-0.116122
0.256815
-0.114787
0.242859
-0.113135
0.229076
-0.111205
0.215486
-0.109035
0.202108
-0.106658
0.188961
-0.104102
0.176061
-0.10139
0.163427
-0.0985392
0.151076
-0.0955656
0.139023
-0.0924801
0.127287
-0.0892905
0.115884
-0.0860016
0.10483
-0.0826153
0.0941434
-0.0791309
0.0838419
-0.0755448
0.0739449
-0.0718505
0.0644735
-0.0680383
0.0554506
-0.0640951
0.046902
-0.0600031
0.0388576
-0.0557388
0.0313523
-0.051271
0.0244286
-0.0465575
0.0181398
-0.0415402
0.0125554
-0.0361373
0.00777062
-0.030229
0.00392228
-0.0236306
0.00121781
-0.0160484
-0.00692824
0.270158
-0.103308
0.256441
-0.102404
0.242837
-0.101183
0.229377
-0.0996749
0.216087
-0.0979158
0.202994
-0.0959418
0.19012
-0.0937841
0.177486
-0.0914682
0.165112
-0.0890154
0.153016
-0.0864429
0.141214
-0.0837644
0.129724
-0.0809901
0.118561
-0.0781272
0.10774
-0.0751803
0.0972757
-0.0721513
0.0871844
-0.0690397
0.0774821
-0.0658424
0.0681857
-0.0625541
0.0593137
-0.0591664
0.0508867
-0.055668
0.0429274
-0.0520439
0.0354626
-0.0482739
0.0285233
-0.0443317
0.0221476
-0.0401818
0.016383
-0.0357756
0.0112912
-0.0310455
0.00695529
-0.0258932
0.00349315
-0.0201685
0.00107907
-0.0136343
-0.00584918
0.255881
-0.0899919
0.242644
-0.0891674
0.229519
-0.088059
0.21654
-0.0866961
0.203738
-0.0851135
0.19114
-0.0833437
0.178771
-0.0814145
0.166651
-0.0793491
0.154802
-0.0771664
0.143241
-0.0748818
0.131984
-0.0725074
0.121046
-0.0700523
0.110442
-0.0675229
0.100185
-0.0649233
0.0902891
-0.0622553
0.0807677
-0.0595183
0.0716352
-0.0567099
0.0629066
-0.0538255
0.0545984
-0.0508581
0.0467286
-0.0477982
0.0393176
-0.0446329
0.0323892
-0.0413454
0.0259711
-0.0379136
0.0200972
-0.0343079
0.0148098
-0.0304882
0.0101632
-0.0263989
0.00623012
-0.02196
0.00311156
-0.0170499
0.000954692
-0.0114774
-0.00489448
0.242341
-0.0771341
0.229567
-0.0763934
0.216912
-0.0754038
0.204411
-0.0741946
0.192094
-0.0727973
0.179991
-0.0712406
0.168126
-0.069549
0.156519
-0.0677425
0.145191
-0.0658377
0.134157
-0.0638477
0.123432
-0.0617831
0.113032
-0.0596516
0.102967
-0.0574588
0.0932521
-0.055208
0.0838977
-0.0529008
0.0749162
-0.0505369
0.0663205
-0.0481141
0.0581237
-0.0456287
0.0503403
-0.0430748
0.0429865
-0.0404444
0.0360804
-0.0377268
0.0296431
-0.0349081
0.0236995
-0.03197
0.0182798
-0.0288882
0.0134214
-0.0256298
0.00917219
-0.0221498
0.00559554
-0.0183834
0.00277852
-0.0142329
0.000846031
-0.00954492
-0.00404845
0.229554
-0.0647276
0.217239
-0.0640784
0.205051
-0.0632167
0.193027
-0.0621703
0.181197
-0.060967
0.169588
-0.0596315
0.158223
-0.0581844
0.147123
-0.0566428
0.136306
-0.0550205
0.125787
-0.0533286
0.11558
-0.0515758
0.105697
-0.0497687
0.0961497
-0.0479117
0.0869495
-0.0460078
0.078107
-0.0440583
0.0696329
-0.0420627
0.0615383
-0.0400195
0.0538351
-0.0379255
0.0465361
-0.0357758
0.0396557
-0.033564
0.0332101
-0.0312812
0.0272181
-0.0289162
0.0217021
-0.026454
0.0166889
-0.023875
0.0122118
-0.0211528
0.00831316
-0.0182511
0.00504827
-0.0151185
0.00249262
-0.0116773
0.000753101
-0.00780541
-0.00329535
0.217522
-0.0527747
0.205669
-0.0522251
0.193952
-0.0514999
0.182406
-0.0506244
0.171061
-0.0496221
0.159943
-0.0485132
0.149073
-0.0473147
0.138471
-0.0460406
0.128153
-0.0447022
0.118132
-0.0433083
0.108423
-0.0418661
0.0990348
-0.0403808
0.0899791
-0.038856
0.0812654
-0.0372941
0.0729032
-0.0356961
0.0649021
-0.0340616
0.0572721
-0.0323895
0.0500236
-0.030677
0.0431682
-0.0289205
0.0367188
-0.0271145
0.0306898
-0.0252522
0.0250982
-0.0233246
0.0199641
-0.0213198
0.0153115
-0.0192223
0.0111701
-0.0170114
0.00757748
-0.0146585
0.00458238
-0.0121234
0.00225073
-0.00934561
0.000675057
-0.00622973
-0.00262029
0.206237
-0.0412816
0.19485
-0.0408383
0.183607
-0.0402565
0.17254
-0.0395573
0.161677
-0.0387598
0.151044
-0.03788
0.140661
-0.0369311
0.130544
-0.0359239
0.120709
-0.0348674
0.111169
-0.0337684
0.101936
-0.0326324
0.0930183
-0.0314635
0.0844267
-0.0302644
0.0761696
-0.029037
0.0682555
-0.027782
0.0606931
-0.0264992
0.0534912
-0.0251876
0.0466594
-0.0238452
0.0402079
-0.022469
0.0341484
-0.021055
0.0284941
-0.0195979
0.0232602
-0.0180907
0.0184648
-0.0165244
0.0141296
-0.0148872
0.0102814
-0.0131632
0.00695382
-0.0113309
0.00419014
-0.0093597
0.00204865
-0.00720411
0.000610535
-0.00479162
-0.00200976
0.195675
-0.0302548
0.184759
-0.0299222
0.17399
-0.0294875
0.1634
-0.0289672
0.153016
-0.0283753
0.142859
-0.0277236
0.13295
-0.0270219
0.123305
-0.0262782
0.113936
-0.0254987
0.104856
-0.0246887
0.0960756
-0.0238519
0.0876035
-0.0229915
0.0794485
-0.0221094
0.0716183
-0.0212068
0.0641207
-0.0202845
0.0569636
-0.0193421
0.0501549
-0.018379
0.0437034
-0.0173936
0.0376183
-0.016384
0.0319104
-0.0153471
0.0265915
-0.014279
0.0216757
-0.0131749
0.0171794
-0.0120281
0.0131223
-0.0108302
0.00952889
-0.00956978
0.00642939
-0.00823137
0.0038629
-0.00679322
0.00188159
-0.0052228
0.00055791
-0.00346793
-0.00145185
0.185801
-0.0196988
0.175357
-0.0194787
0.165061
-0.0191919
0.154944
-0.0188495
0.145029
-0.0184608
0.135339
-0.0180335
0.125891
-0.0175739
0.1167
-0.0170872
0.107779
-0.0165775
0.0991382
-0.016048
0.0907878
-0.0155015
0.0827359
-0.0149396
0.0749903
-0.0143638
0.0675584
-0.0137749
0.0604472
-0.0131733
0.0536639
-0.0125588
0.0472158
-0.0119309
0.0411109
-0.0112887
0.0353579
-0.0106309
0.0299664
-0.00995554
0.0249475
-0.00926013
0.020314
-0.00854145
0.0160813
-0.00779533
0.0122673
-0.00701628
0.00889458
-0.00619701
0.0059908
-0.00532759
0.00359168
-0.0043941
0.00174462
-0.00337574
0.000515485
-0.0022388
-0.000936365
0.176566
-0.00961476
0.166594
-0.0095063
0.156767
-0.00936523
0.147115
-0.00919714
0.137661
-0.00900654
0.128424