/*--------------------------------*- C++ -*----------------------------------*\
  =========                 |
  \\      /  F ield         | OpenFOAM: The Open Source CFD Toolbox
   \\    /   O peration     | Website:  https://openfoam.org
    \\  /    A nd           | Version:  12
     \\/     M anipulation  |
\*---------------------------------------------------------------------------*/
FoamFile
{
    format      ascii;
    class       volScalarField;
    location    "320";
    object      pMean;
}
// * * * * * * * * * * * * * * * * * * * * * * * * * * * * * * * * * * * * * //

dimensions      [0 2 -2 0 0 0 0];

internalField   nonuniform List<scalar> 
6750
(
0.0108437
0.0108176
0.0107751
0.0106002
0.0096178
0.0125006
0.0124713
0.0123531
0.0120966
0.0117535
0.0144127
0.0143615
0.0142403
0.014051
0.013909
0.0163989
0.016313
0.0161979
0.0160657
0.0159986
0.0183618
0.0182321
0.0181075
0.0180037
0.0179748
0.0202219
0.0200439
0.0198992
0.0198064
0.0197959
0.0219304
0.0217029
0.0215344
0.0214459
0.0214454
0.023458
0.0231818
0.0229895
0.0229033
0.0229096
0.0247862
0.0244637
0.0242496
0.0241657
0.0241772
0.0259047
0.0255399
0.0253071
0.0252259
0.0252416
0.0268107
0.026409
0.0261612
0.0260831
0.0261019
0.0275078
0.0270754
0.026817
0.0267422
0.0267631
0.0280061
0.0275492
0.027285
0.0272132
0.0272352
0.0283204
0.0278447
0.0275809
0.0275108
0.0275326
0.0284648
0.0279833
0.0277249
0.0276526
0.0276725
0.0284649
0.0279834
0.027725
0.0276527
0.0276726
0.0283208
0.0278451
0.0275813
0.0275112
0.027533
0.0280067
0.0275498
0.0272856
0.0272138
0.0272358
0.0275086
0.0270763
0.0268179
0.0267431
0.026764
0.0268117
0.02641
0.0261623
0.0260842
0.026103
0.025906
0.0255412
0.0253084
0.0252272
0.0252429
0.0247876
0.0244651
0.0242511
0.0241672
0.0241787
0.0234596
0.0231834
0.0229912
0.022905
0.0229113
0.0219322
0.0217047
0.0215363
0.0214478
0.0214473
0.0202238
0.0200458
0.0199012
0.0198084
0.019798
0.0183639
0.0182341
0.0181096
0.0180058
0.0179769
0.016401
0.0163151
0.0162001
0.016068
0.0160008
0.0144149
0.0143637
0.0142425
0.0140532
0.0139112
0.0125029
0.0124736
0.0123554
0.0120988
0.0117557
0.010846
0.0108198
0.0107773
0.0106024
0.00962002
0.00374834
0.00429112
0.00566469
0.00667158
0.00739585
0.00797043
0.0084227
0.00876723
0.00903104
0.00922135
0.00931848
0.00938399
0.00939518
0.00934933
0.0092447
0.00907657
0.00884039
0.00853613
0.00816392
0.00772199
0.00720712
0.00670849
0.00617429
0.00561887
0.00506003
0.00450882
0.00397386
0.00347191
0.00301315
0.00249182
0.00751409
0.00824739
0.00899121
0.00935474
0.00955767
0.0096822
0.00973161
0.00971749
0.0096654
0.00956818
0.00940939
0.00927973
0.0091474
0.00901611
0.00888421
0.00874229
0.00857719
0.00837639
0.00812779
0.00782627
0.00748372
0.0070371
0.00656334
0.00605107
0.00550729
0.00494226
0.00436321
0.00378641
0.00325758
0.00273355
0.00996385
0.0101291
0.0104235
0.0105606
0.0106254
0.0106299
0.0105636
0.0104382
0.0102708
0.0100278
0.00973083
0.00944943
0.00915255
0.00885136
0.00855177
0.00825367
0.00795353
0.00764561
0.00732331
0.00698069
0.00661474
0.00622594
0.00581518
0.00538196
0.00492983
0.00446342
0.00398278
0.00349832
0.003093
0.00281265
0.0114372
0.0112264
0.011351
0.0114259
0.0114319
0.0113683
0.0112308
0.0110349
0.0107854
0.0104255
0.0100274
0.00961661
0.00917415
0.00871648
0.00825542
0.0077992
0.0073535
0.00692114
0.0065026
0.00609589
0.00569845
0.00531302
0.00493374
0.00455675
0.00418062
0.0038043
0.00342037
0.00303095
0.00275224
0.00275941
0.0125793
0.0122359
0.0122866
0.0122977
0.0122276
0.0120828
0.0118641
0.0115845
0.0112378
0.0107661
0.010266
0.00973023
0.00915539
0.00856101
0.00796298
0.00737517
0.00680933
0.006274
0.00577425
0.00531151
0.00488449
0.00449129
0.00412712
0.00378592
0.00346254
0.00315195
0.00284063
0.00252242
0.00234046
0.00261398
0.0135899
0.0132143
0.0132064
0.0131437
0.0129935
0.012767
0.0124655
0.0120976
0.0116441
0.0110678
0.0104619
0.0098054
0.00910641
0.00838679
0.00766579
0.00696157
0.00629016
0.00566399
0.0050912
0.00457541
0.00411617
0.00371007
0.00335146
0.00303281
0.00274673
0.00248547
0.00223064
0.00196957
0.00186755
0.00238141
0.0145013
0.0141342
0.0140724
0.0139382
0.0137135
0.0134095
0.0130282
0.0125735
0.0120091
0.0113365
0.0106249
0.00985266
0.00903615
0.00819902
0.00736355
0.00655142
0.005782
0.00507073
0.00442807
0.00385923
0.00336447
0.00294009
0.00257938
0.00227358
0.00201376
0.0017901
0.0015801
0.00136657
0.00133474
0.00206183
0.0153328
0.0149994
0.0148901
0.0146884
0.0143927
0.0140133
0.0135543
0.0130129
0.012338
0.0115763
0.0107591
0.00987556
0.00894703
0.00799868
0.00705545
0.00614192
0.0052802
0.00448807
0.00377788
0.00315605
0.00262344
0.00217626
0.00180711
0.00150625
0.0012636
0.00106757
0.000892354
0.00071753
0.000747411
0.00165864
0.016105
0.0158229
0.015671
0.0154034
0.0150382
0.014585
0.014049
0.0134163
0.0126388
0.0117889
0.0108671
0.00987603
0.00883999
0.00778549
0.00673988
0.00573016
0.00478068
0.00391114
0.00313534
0.00246071
0.00188857
0.00141507
0.00103232
0.000729881
0.000496782
0.000319978
0.000170672
2.68901e-05
0.000111053
0.00117699
0.0168335
0.016614
0.0164226
0.0160901
0.0156559
0.015131
0.0145168
0.0137863
0.012917
0.0119757
0.0109513
0.00985599
0.00871588
0.00755908
0.00641508
0.00531299
0.00427905
0.00333453
0.00249441
0.0017669
0.00115371
0.000650944
0.000250364
-5.90313e-05
-0.000288981
-0.000453618
-0.000584685
-0.00070412
-0.000571702
0.000621804
0.0175298
0.0173803
0.017152
0.0167541
0.0162505
0.0156548
0.0149613
0.0141297
0.0131758
0.0121403
0.0110147
0.00981723
0.0085754
0.00731892
0.00607924
0.00488732
0.003771
0.0027529
0.001849
0.00106814
0.000412323
-0.000122356
-0.000544432
-0.000865354
-0.00109743
-0.00125593
-0.00137521
-0.00147596
-0.00130024
-3.05209e-06
0.0182036
0.018129
0.0178658
0.0174016
0.0168278
0.0161616
0.0153849
0.014454
0.0134176
0.0122859
0.0110597
0.0097612
0.00841894
0.00706428
0.00573045
0.00445005
0.00325236
0.00216114
0.00119325
0.000358061
-0.000342153
-0.00091133
-0.00135824
-0.00169471
-0.00193352
-0.00209109
-0.00220403
-0.00229098
-0.00207618
-0.00069527
0.0188638
0.0188675
0.0185711
0.01804
0.0173963
0.0166555
0.0157885
0.0147674
0.0136448
0.0124152
0.0110884
0.00968905
0.00824666
0.00679421
0.00536663
0.003998
0.00271888
0.00155409
0.000521243
-0.000369784
-0.00111651
-0.00172288
-0.00219787
-0.00255362
-0.00280333
-0.00296454
-0.00307607
-0.00315354
-0.00290309
-0.00145449
0.0195194
0.0196026
0.019275
0.0186758
0.017961
0.0171431
0.0161796
0.0150743
0.01386
0.0125309
0.0111028
0.00960173
0.00805843
0.00650753
0.00498548
0.00352777
0.00216615
0.000926407
-0.000173144
-0.00112216
-0.00191796
-0.00256448
-0.00307089
-0.00344961
-0.00371418
-0.00388332
-0.00399793
-0.00406978
-0.00378659
-0.00228259
0.0201776
0.0203441
0.0199863
0.0193176
0.0185294
0.0176286
0.0165674
0.0153781
0.0140671
0.0126361
0.0111048
0.00949998
0.00785391
0.00620272
0.00458436
0.00303562
0.00158939
0.000272354
-0.000896488
-0.00190636
-0.00275435
-0.00344441
-0.00398584
-0.00439128
-0.00467467
-0.00485593
-0.00497792
-0.00504778
-0.0047344
-0.00318394
0.0208459
0.0211034
0.0207172
0.0199773
0.0191087
0.0181147
0.0169621
0.0156824
0.0142699
0.0127338
0.011096
0.00938432
0.00763239
0.0058779
0.00416019
0.00251733
0.000983279
-0.000414394
-0.00165603
-0.00273042
-0.00363441
-0.00437193
-0.0049524
-0.00538863
-0.00569499
-0.00589265
-0.00602631
-0.00609776
-0.00575652
-0.00416574
0.0215345
0.0218934
0.0214797
0.0206644
0.019708
0.0186117
0.0173703
0.0159916
0.0144724
0.0128269
0.011078
0.009255
0.00739283
0.0055307
0.00370932
0.00196799
0.000341739
-0.00114102
-0.00245997
-0.00360344
-0.00456806
-0.00535767
-0.00598181
-0.00645342
-0.00678721
-0.00700584
-0.00715572
-0.00723248
-0.0068656
-0.00523836
0.0222605
0.0227278
0.022288
0.0213873
0.0203327
0.0191345
0.017798
0.0163116
0.0146794
0.0129183
0.0110524
0.00911195
0.00713364
0.00515806
0.00322726
0.00138176
-0.000342396
-0.00191592
-0.00331783
-0.00453601
-0.00556681
-0.00641402
-0.00708721
-0.00759946
-0.00796582
-0.00821047
-0.00838156
-0.00846774
-0.00807751
-0.00641594
0.0230463
0.0236184
0.0231543
0.0221612
0.0209943
0.0196949
0.0182513
0.0166487
0.0148958
0.0130113
0.0110203
0.00895468
0.00685257
0.004756
0.00270839
0.000751433
-0.00107778
-0.00274912
-0.00424096
-0.00554069
-0.00664439
-0.00755574
-0.00828435
-0.00884342
-0.00924833
-0.00952484
-0.00972269
-0.00982298
-0.00941185
-0.00771706
0.0239114
0.0245868
0.0240978
0.0230001
0.0217114
0.0203033
0.0187404
0.0170111
0.0151273
0.013109
0.0109828
0.00878204
0.00654634
0.00431925
0.00214552
6.80127e-05
-0.00187514
-0.00365299
-0.00524323
-0.00663279
-0.00781746
-0.00880077
-0.00959238
-0.0102055
-0.010656
-0.0109712
-0.0112023
-0.0113223
-0.0108936
-0.00916604
0.024884
0.0256651
0.0251411
0.0239202
0.0225074
0.0209745
0.0192778
0.0174084
0.0153804
0.0132151
0.0109406
0.00859193
0.00621027
0.00384066
0.00152918
-0.000680121
-0.00274814
-0.00464308
-0.00634203
-0.00783143
-0.00910677
-0.0101715
-0.0110351
-0.0117111
-0.0122154
-0.0125776
-0.0128503
-0.0129966
-0.0125541
-0.0107945
0.0260056
0.0268797
0.0263083
0.0249568
0.0234056
0.0217271
0.0198785
0.0178518
0.0156623
0.0133329
0.0108934
0.00838071
0.0058375
0.00331034
0.000846667
-0.00150833
-0.0037146
-0.00573957
-0.00755972
-0.00916107
-0.0105388
-0.0116962
-0.0126429
-0.0133922
-0.0139607
-0.0143796
-0.0147032
-0.0148844
-0.0144339
-0.0126441
0.0273261
0.0282787
0.0276439
0.0261498
0.0244337
0.0225849
0.0205614
0.0183548
0.0159812
0.0134656
0.0108398
0.00814239
0.00541786
0.00271429
8.04108e-05
-0.00243749
-0.00479847
-0.0069693
-0.00892592
-0.010654
-0.0121484
-0.0134123
-0.0144553
-0.0152908
-0.015936
-0.0164238
-0.0168101
-0.0170372
-0.0165866
-0.0147701
0.0289185
0.029928
0.0292121
0.0275451
0.0256301
0.0235795
0.0213506
0.0189337
0.0163463
0.0136157
0.0107758
0.00786712
0.00493604
0.00203216
-0.000794538
-0.00349678
-0.00603289
-0.0083691
-0.0104809
-0.0123537
-0.0139823
-0.0153697
-0.0165255
-0.0174631
-0.0182003
-0.0187721
-0.0192359
-0.0195227
-0.0190839
-0.0172481
0.0308998
0.0319267
0.031091
0.0292054
0.027048
0.0247531
0.0222772
0.019609
0.016768
0.0137839
0.0106932
0.00753858
0.00436829
0.00123345
-0.0018148
-0.00472843
-0.00746526
-0.00999121
-0.0122816
-0.0143217
-0.0161062
-0.0176382
-0.0189272
-0.0199867
-0.0208353
-0.0215103
-0.0220698
-0.0224341
-0.0220243
-0.0201839
0.033414
0.0344106
0.0333924
0.0312252
0.028764
0.0261653
0.0233838
0.0204074
0.0172577
0.0139676
0.0105765
0.00712947
0.00367674
0.00027086
-0.00303616
-0.00619588
-0.00916609
-0.0119128
-0.0144115
-0.0166475
-0.0186155
-0.0203188
-0.021767
-0.0229735
-0.0239577
-0.0247594
-0.0254382
-0.0259031
-0.0255485
-0.0237298
0.0367318
0.03759
0.0362884
0.0337476
0.030894
0.0279038
0.0247309
0.0213635
0.0178261
0.0141557
0.010395
0.0065918
0.0027983
-0.000931944
-0.0045467
-0.00799795
-0.0112442
-0.0142523
-0.0169985
-0.0194685
-0.0216574
-0.0235683
-0.0252107
-0.0265981
-0.0277504
-0.0287091
-0.0295354
-0.0301308
-0.0298706
-0.0281223
0.0412848
0.0417902
0.0400245
0.036968
0.0335912
0.0300807
0.0263913
0.0225134
0.0184759
0.0143207
0.0100944
0.00584805
0.00163542
-0.0024896
-0.0064757
-0.0102766
-0.013853
-0.0171741
-0.0202176
-0.0229706
-0.0254291
-0.0275963
-0.0294812
-0.0310974
-0.0324648
-0.0336258
-0.0346408
-0.0354112
-0.0353185
-0.0337425
0.0479687
0.0477389
0.045216
0.0414377
0.0373322
0.0330759
0.0286352
0.0240143
0.0192543
0.0144066
0.00952537
0.00466611
-0.000115972
-0.00476817
-0.00924238
-0.0134967
-0.0174966
-0.0212156
-0.0246343
-0.0277407
-0.0305341
-0.0330257
-0.0352128
-0.0371079
-0.0387307
-0.04012
-0.041332
-0.0422838
-0.0424343
-0.0412206
0.0597136
0.0577697
0.053639
0.0485795
0.0432599
0.0377774
0.0321263
0.0263421
0.0204839
0.0146134
0.00878924
0.00306627
-0.0025059
-0.00788386
-0.0130311
-0.017918
-0.0225213
-0.0268234
-0.0308131
-0.0344842
-0.0378295
-0.0408399
-0.0435329
-0.0459141
-0.0479924
-0.0497928
-0.0513617
-0.0526845
-0.0534278
-0.0529629
0.00727556
0.00826662
0.0100304
0.0114456
0.0126453
0.0137692
0.0148488
0.0158923
0.0169092
0.0179092
0.0189006
0.019892
0.0208922
0.0219109
0.0229576
0.0240442
0.025185
0.0263977
0.0277029
0.0291243
0.0306926
0.0324499
0.0344481
0.036758
0.0394763
0.0427475
0.0467675
0.0517805
0.0580008
0.0661387
0.0116309
0.012655
0.0138213
0.0148041
0.0156907
0.0165417
0.0173684
0.0181751
0.0189692
0.0197589
0.0205521
0.0213569
0.022182
0.0230365
0.0239305
0.0248761
0.025888
0.0269838
0.028185
0.0295179
0.0310173
0.0327289
0.0347133
0.0370539
0.0398679
0.0433283
0.0476837
0.0532897
0.0606328
0.0704772
0.0140394
0.014955
0.0158459
0.0166478
0.0174296
0.0182087
0.0189822
0.0197513
0.0205213
0.021298
0.0220878
0.0228976
0.0237351
0.0246088
0.0255286
0.0265067
0.0275577
0.0286996
0.0299549
0.031352
0.0329281
0.0347328
0.0368326
0.0393199
0.0423256
0.0460398
0.0507431
0.0568473
0.0650048
0.0760749
0.0161519
0.0169581
0.0177339
0.0184554
0.0191725
0.0198958
0.0206248
0.0213626
0.0221144
0.0228859
0.0236831
0.0245126
0.0253818
0.0262994
0.0272756
0.0283225
0.0294553
0.0306928
0.0320585
0.0335825
0.0353045
0.0372767
0.0395702
0.042283
0.0455536
0.0495816
0.0546618
0.0612204
0.0699989
0.0818931
0.0181243
0.0188364
0.0195215
0.0201709
0.0208271
0.0215009
0.0221932
0.022907
0.0236471
0.0244183
0.0252263
0.0260775
0.026979
0.0279398
0.0289702
0.0300829
0.0312939
0.0326227
0.0340942
0.0357403
0.0376027
0.0397367
0.0422168
0.0451457
0.0486675
0.0529891
0.0584145
0.0653788
0.074706
0.0873421
0.0199268
0.0205549
0.0211626
0.0217512
0.0223592
0.022996
0.0236627
0.0243616
0.0250968
0.0258728
0.026695
0.0275694
0.0285034
0.0295056
0.0305868
0.0317601
0.0330418
0.0344523
0.0360177
0.0377713
0.0397566
0.0420311
0.0446725
0.0477871
0.0515239
0.0560957
0.0618156
0.0691306
0.0789449
0.0922834
0.0215548
0.0221077
0.0226493
0.0231882
0.0237584
0.0243675
0.0250161
0.0257063
0.0264416
0.0272263
0.0280651
0.0289641
0.0299305
0.030973
0.0321024
0.0333322
0.034679
0.0361641
0.0378141
0.0396636
0.0417574
0.0441551
0.0469364
0.0502107
0.0541307
0.0589146
0.0648837
0.0724973
0.0827259
0.0966878
0.0230027
0.0234878
0.0239727
0.0244708
0.0250112
0.0255995
0.0262357
0.0269216
0.0276603
0.0284556
0.029312
0.0302354
0.0312327
0.0323129
0.0334867
0.0347679
0.0361736
0.0377253
0.0394506
0.0413847
0.0435737
0.0460784
0.0489805
0.0523916
0.0564675
0.0614306
0.0676094
0.0754744
0.0860431
0.100529
0.0242615
0.0246858
0.0251226
0.0255877
0.0261049
0.0266777
0.0273057
0.0279904
0.0287343
0.0295409
0.0304144
0.0313605
0.0323861
0.0335
0.0347133
0.0360398
0.0374968
0.0391063
0.0408964
0.0429031
0.0451732
0.0477688
0.0507728
0.0542987
0.0585047
0.0636164
0.0699687
0.0780414
0.0888814
0.103793
0.0253241
0.025695
0.0260918
0.026531
0.0270305
0.0275921
0.028215
0.0289002
0.02965
0.0304674
0.0313565
0.0323227
0.033373
0.034516
0.035763
0.0371278
0.0386281
0.0402861
0.0421303
0.0441973
0.0465345
0.0492049
0.0522924
0.0559119
0.0602235
0.0654554
0.0719474
0.080187
0.0912348
0.106487
0.0261877
0.0265133
0.0268782
0.0272976
0.0277839
0.0283375
0.0289574
0.0296441
0.0303996
0.0312267
0.0321291
0.0331123
0.034183
0.0353501
0.0366246
0.0380207
0.039556
0.0412531
0.0431408
0.045256
0.0476468
0.0503765
0.0535302
0.0572235
0.061618
0.0669439
0.073545
0.0819143
0.0931135
0.108637
0.0268549
0.0271441
0.0274846
0.0278894
0.0283664
0.0289145
0.0295327
0.0302212
0.0309817
0.0318166
0.0327298
0.0337265
0.0348133
0.0359991
0.037295
0.0387152
0.0402775
0.0420047
0.0439256
0.0460777
0.0485092
0.051284
0.0544876
0.0582366
0.0626936
0.0680899
0.0747724
0.0832382
0.094542
0.110276
0.0273334
0.0275955
0.0279187
0.0283136
0.0287843
0.0293289
0.0299461
0.0306363
0.0314006
0.0322415
0.0331627
0.0341691
0.0352676
0.036467
0.0377783
0.0392159
0.0407976
0.0425462
0.044491
0.0466692
0.0491297
0.0519365
0.0551756
0.0589639
0.0634648
0.0689105
0.0756503
0.0841831
0.0955537
0.111443
0.0276356
0.0278802
0.0281926
0.0285814
0.0290482
0.0295907
0.0302077
0.030899
0.0316659
0.0325108
0.0334371
0.0344499
0.0355559
0.036764
0.0380852
0.0395338
0.0411278
0.0428901
0.0448499
0.0470448
0.0495236
0.0523507
0.0556121
0.0594253
0.0639539
0.0694305
0.0762063
0.0847802
0.0961849
0.112186
0.0277777
0.0280137
0.0283209
0.0287069
0.029172
0.0297137
0.0303305
0.0310225
0.0317908
0.0326376
0.0335664
0.0345823
0.0356919
0.0369041
0.0382301
0.039684
0.0412839
0.0430528
0.0450198
0.0472227
0.0497103
0.052547
0.0558191
0.0596441
0.0641859
0.0696771
0.0764703
0.085063
0.0964776
0.112546
0.0277778
0.0280138
0.0283211
0.0287071
0.0291722
0.0297138
0.0303307
0.0310227
0.0317909
0.0326377
0.0335665
0.0345824
0.035692
0.0369042
0.0382302
0.0396841
0.041284
0.0430529
0.0450199
0.0472227
0.0497103
0.0525471
0.0558192
0.0596442
0.064186
0.0696772
0.0764703
0.085063
0.0964776
0.112546
0.027636
0.0278806
0.0281929
0.0285818
0.0290486
0.0295911
0.030208
0.0308993
0.0316663
0.0325111
0.0334374
0.0344502
0.0355562
0.0367642
0.0380854
0.039534
0.041128
0.0428903
0.0448501
0.047045
0.0495238
0.0523509
0.0556123
0.0594255
0.0639541
0.0694306
0.0762064
0.0847802
0.0961851
0.112186
0.027334
0.0275962
0.0279194
0.0283143
0.0287849
0.0293295
0.0299467
0.0306369
0.0314012
0.0322421
0.0331632
0.0341696
0.0352681
0.0364674
0.0377787
0.0392162
0.0407979
0.0425466
0.0444913
0.0466695
0.04913
0.0519368
0.0551759
0.0589642
0.0634652
0.0689108
0.0756505
0.0841832
0.0955539
0.111443
0.0268558
0.027145
0.0274855
0.0278903
0.0283673
0.0289154
0.0295335
0.030222
0.0309825
0.0318174
0.0327306
0.0337271
0.0348139
0.0359997
0.0372956
0.0387157
0.040278
0.0420051
0.0439261
0.0460781
0.0485096
0.0512844
0.0544881
0.0582371
0.062694
0.0680903
0.0747727
0.0832384
0.0945424
0.110276
0.0261888
0.0265145
0.0268793
0.0272987
0.027785
0.0283386
0.0289584
0.0296451
0.0304006
0.0312276
0.03213
0.0331132
0.0341839
0.0353509
0.0366253
0.0380213
0.0395566
0.0412537
0.0431414
0.0452566
0.0476473
0.0503771
0.0535307
0.057224
0.0616185
0.0669445
0.0735455
0.0819147
0.0931139
0.108638
0.0253254
0.0256963
0.0260931
0.0265323
0.0270318
0.0275933
0.0282162
0.0289014
0.0296512
0.0304685
0.0313576
0.0323237
0.0333739
0.0345169
0.0357639
0.0371286
0.0386289
0.0402869
0.042131
0.044198
0.0465352
0.0492055
0.052293
0.0559124
0.060224
0.0654561
0.0719482
0.0801877
0.0912354
0.106487
0.024263
0.0246873
0.0251241
0.0255892
0.0261064
0.0266791
0.0273071
0.0279918
0.0287356
0.0295421
0.0304156
0.0313616
0.0323872
0.0335011
0.0347143
0.0360407
0.0374977
0.0391072
0.0408973
0.0429039
0.045174
0.0477695
0.0507735
0.0542993
0.0585054
0.0636174
0.0699698
0.0780423
0.0888823
0.103793
0.0230045
0.0234895
0.0239745
0.0244725
0.0250128
0.0256011
0.0262372
0.0269231
0.0276618
0.028457
0.0293134
0.0302367
0.031234
0.032314
0.0334878
0.034769
0.0361747
0.0377264
0.0394515
0.0413856
0.0435745
0.0460792
0.0489812
0.0523923
0.0564683
0.0614317
0.0676108
0.0754756
0.0860439
0.100529
0.0215568
0.0221096
0.0226512
0.02319
0.0237602
0.0243693
0.0250178
0.025708
0.0264432
0.0272278
0.0280666
0.0289656
0.0299319
0.0309743
0.0321036
0.0333334
0.0346802
0.0361652
0.0378152
0.0396646
0.0417584
0.044156
0.0469372
0.0502115
0.0541317
0.0589159
0.0648854
0.0724988
0.0827267
0.096688
0.0199288
0.0205569
0.0211646
0.0217531
0.0223611
0.0229979
0.0236645
0.0243634
0.0250985
0.0258745
0.0266967
0.027571
0.0285049
0.029507
0.0305882
0.0317614
0.0330431
0.0344536
0.036019
0.0377725
0.0397577
0.0420321
0.0446734
0.047788
0.051525
0.0560973
0.0618175
0.0691322
0.0789457
0.0922835
0.0181264
0.0188385
0.0195236
0.020173
0.0208291
0.0215029
0.0221951
0.022909
0.0236489
0.0244201
0.0252281
0.0260792
0.0269807
0.0279413
0.0289716
0.0300844
0.0312953
0.032624
0.0340955
0.0357415
0.0376038
0.0397377
0.0422178
0.0451467
0.0486689
0.0529909
0.0584166
0.0653806
0.0747068
0.087342
0.0161541
0.0169603
0.0177361
0.0184576
0.0191746
0.0198979
0.0206269
0.0213646
0.0221164
0.0228878
0.0236849
0.0245144
0.0253836
0.0263011
0.0272772
0.028324
0.0294568
0.0306943
0.0320599
0.0335839
0.0353058
0.0372779
0.0395714
0.0422843
0.0455552
0.0495836
0.054664
0.061222
0.0699995
0.0818928
0.0140416
0.0149572
0.0158482
0.01665
0.0174318
0.0182108
0.0189843
0.0197534
0.0205233
0.0213
0.0220898
0.0228995
0.0237369
0.0246106
0.0255304
0.0265084
0.0275593
0.0287012
0.0299564
0.0313534
0.0329295
0.0347342
0.036834
0.0393214
0.0423274
0.0460419
0.0507452
0.0568487
0.0650052
0.0760744
0.0116331
0.0126573
0.0138236
0.0148064
0.015693
0.0165439
0.0173706
0.0181773
0.0189714
0.019761
0.0205541
0.021359
0.022184
0.0230384
0.0239323
0.0248779
0.0258897
0.0269855
0.0281866
0.0295194
0.0310188
0.0327304
0.0347148
0.0370556
0.0398698
0.0433304
0.0476855
0.0532906
0.0606329
0.0704768
0.00727779
0.00826896
0.0100327
0.0114478
0.0126475
0.0137714
0.014851
0.0158944
0.0169113
0.0179112
0.0189026
0.0198939
0.0208941
0.0219127
0.0229594
0.0240459
0.0251866
0.0263993
0.0277044
0.0291257
0.030694
0.0324514
0.0344496
0.0367598
0.0394782
0.0427492
0.0467686
0.0517808
0.0580006
0.0661384
0.0597135
0.0577698
0.0536389
0.0485792
0.0432596
0.0377771
0.032126
0.0263417
0.0204833
0.0146126
0.00878815
0.0030649
-0.00250755
-0.00788578
-0.0130333
-0.0179204
-0.0225239
-0.0268261
-0.0308159
-0.0344872
-0.0378325
-0.0408429
-0.0435359
-0.0459171
-0.0479954
-0.0497958
-0.0513647
-0.0526875
-0.053431
-0.0529662
0.0479684
0.0477384
0.0452156
0.0414375
0.037332
0.0330757
0.0286349
0.0240138
0.0192535
0.0144056
0.00952412
0.00466462
-0.000117691
-0.0047701
-0.00924452
-0.013499
-0.0174991
-0.0212183
-0.0246371
-0.0277436
-0.0305372
-0.0330288
-0.0352159
-0.037111
-0.0387337
-0.0401231
-0.041335
-0.0422867
-0.0424371
-0.0412235
0.0412848
0.0417904
0.0400248
0.0369683
0.0335914
0.0300807
0.0263911
0.0225128
0.0184751
0.0143196
0.0100931
0.00584652
0.00163369
-0.00249152
-0.0064778
-0.0102789
-0.0138555
-0.0171767
-0.0202204
-0.0229736
-0.0254322
-0.0275995
-0.0294846
-0.0311008
-0.0324682
-0.0336291
-0.0346441
-0.0354143
-0.0353214
-0.0337452
0.0367326
0.0375908
0.0362891
0.033748
0.0308941
0.0279036
0.0247304
0.0213626
0.017825
0.0141544
0.0103935
0.00659017
0.00279653
-0.000933848
-0.00454876
-0.00800016
-0.0112466
-0.0142549
-0.0170013
-0.0194716
-0.0216607
-0.0235717
-0.0252143
-0.0266019
-0.0277542
-0.0287129
-0.029539
-0.0301341
-0.0298736
-0.0281249
0.0334152
0.0344116
0.0333931
0.0312255
0.0287638
0.0261647
0.0233829
0.0204062
0.0172563
0.0139661
0.0105748
0.00712772
0.0036749
0.000268934
-0.0030382
-0.00619807
-0.00916845
-0.0119154
-0.0144143
-0.0166505
-0.0186188
-0.0203224
-0.0217707
-0.0229774
-0.0239617
-0.0247634
-0.0254421
-0.0259068
-0.0255518
-0.0237326
0.0309013
0.0319277
0.0310915
0.0292053
0.0270475
0.0247522
0.022276
0.0196075
0.0167663
0.0137821
0.0106914
0.00753671
0.00436638
0.00123148
-0.00181685
-0.00473059
-0.00746758
-0.00999372
-0.0122844
-0.0143247
-0.0161094
-0.0176416
-0.0189309
-0.0199906
-0.0208393
-0.0215143
-0.0220738
-0.022438
-0.0220279
-0.0201871
0.0289199
0.029929
0.0292124
0.027545
0.0256295
0.0235785
0.0213493
0.0189321
0.0163445
0.0136138
0.0107738
0.00786516
0.00493407
0.00203016
-0.00079659
-0.00349892
-0.00603517
-0.00837155
-0.0104836
-0.0123566
-0.0139854
-0.015373
-0.016529
-0.0174668
-0.0182041
-0.018776
-0.0192398
-0.0195266
-0.0190877
-0.0172517
0.0273273
0.0282795
0.0276443
0.0261496
0.0244331
0.0225839
0.0205601
0.0183532
0.0159794
0.0134637
0.0108379
0.00814043
0.00541589
0.00271231
7.83874e-05
-0.00243958
-0.00480068
-0.00697165
-0.00892843
-0.0106566
-0.0121512
-0.0134154
-0.0144586
-0.0152942
-0.0159396
-0.0164275
-0.0168139
-0.017041
-0.0165905
-0.0147739
0.0260067
0.0268806
0.0263089
0.0249568
0.0234051
0.0217262
0.0198773
0.0178504
0.0156606
0.0133311
0.0108916
0.0083788
0.00583557
0.00330841
0.00084471
-0.00151034
-0.00371669
-0.00574178
-0.00756207
-0.00916356
-0.0105415
-0.011699
-0.0126459
-0.0133953
-0.013964
-0.014383
-0.0147068
-0.0148881
-0.0144377
-0.0126479
0.0248851
0.025666
0.0251416
0.0239204
0.0225071
0.0209738
0.0192767
0.0174071
0.0153788
0.0132134
0.0109388
0.00859009
0.00620843
0.00383882
0.00152732
-0.000682018
-0.0027501
-0.00464513
-0.00634418
-0.00783371
-0.00910918
-0.010174
-0.0110379
-0.011714
-0.0122185
-0.0125808
-0.0128536
-0.0130001
-0.0125578
-0.0107984
0.0239126
0.0245879
0.0240984
0.0230004
0.0217112
0.0203027
0.0187395
0.0170099
0.0151258
0.0131074
0.0109811
0.00878031
0.0065446
0.00431752
0.00214378
6.62508e-05
-0.00187696
-0.00365487
-0.0052452
-0.00663487
-0.00781966
-0.00880312
-0.00959488
-0.0102082
-0.0106588
-0.0109742
-0.0112056
-0.0113258
-0.0108972
-0.00916978
0.0230476
0.0236195
0.0231551
0.0221616
0.0209943
0.0196945
0.0182506
0.0166476
0.0148944
0.0130098
0.0110187
0.00895307
0.00685095
0.0047544
0.00270679
0.000749806
-0.00107945
-0.00275085
-0.00424276
-0.00554258
-0.0066464
-0.00755789
-0.00828667
-0.00884594
-0.00925104
-0.00952772
-0.00972583
-0.00982634
-0.00941539
-0.0077207
0.0222619
0.022729
0.0222889
0.0213878
0.0203328
0.0191342
0.0177973
0.0163107
0.0146782
0.012917
0.0110509
0.00911048
0.00713217
0.00515659
0.00322579
0.00138026
-0.000343927
-0.0019175
-0.00331948
-0.00453775
-0.00556867
-0.00641602
-0.00708939
-0.00760184
-0.00796841
-0.0082133
-0.00838463
-0.00847103
-0.00808098
-0.00641948
0.021536
0.0218948
0.0214807
0.020665
0.0197082
0.0186115
0.0173698
0.0159907
0.0144713
0.0128257
0.0110767
0.00925368
0.0073915
0.00552937
0.00370798
0.00196663
0.000340327
-0.00114249
-0.0024615
-0.00360506
-0.00456979
-0.00535956
-0.00598388
-0.00645571
-0.00678974
-0.00700861
-0.00715872
-0.00723567
-0.00686896
-0.00524179
0.0208475
0.0211048
0.0207183
0.0199781
0.019109
0.0181146
0.0169617
0.0156817
0.014269
0.0127328
0.0110949
0.00938317
0.00763122
0.00587671
0.00415897
0.00251607
0.000981969
-0.000415763
-0.00165748
-0.00273195
-0.00363607
-0.00437374
-0.0049544
-0.00539085
-0.00569745
-0.00589535
-0.00602924
-0.00610089
-0.0057598
-0.00416907
0.0201793
0.0203456
0.0199875
0.0193185
0.0185299
0.0176287
0.0165672
0.0153777
0.0140664
0.0126353
0.0111038
0.00949901
0.00785289
0.00620166
0.00458325
0.00303445
0.00158816
0.000271054
-0.00089787
-0.00190784
-0.00275596
-0.00344618
-0.0039878
-0.00439345
-0.00467709
-0.00485859
-0.00498081
-0.00505086
-0.00473761
-0.00318718
0.0195212
0.0196042
0.0192763
0.0186768
0.0179616
0.0171434
0.0161796
0.0150741
0.0138595
0.0125303
0.0111021
0.00960093
0.00805757
0.00650659
0.00498447
0.00352668
0.00216499
0.00092516
-0.000174487
-0.00112362
-0.00191955
-0.00256624
-0.00307285
-0.00345178
-0.00371658
-0.00388596
-0.00400079
-0.00407282
-0.00378975
-0.00228574
0.0188656
0.0188692
0.0185726
0.0180411
0.0173971
0.016656
0.0157887
0.0147674
0.0136445
0.0124148
0.0110879
0.00968842
0.00824593
0.0067934
0.00536572
0.00399699
0.00271777
0.00155288
0.000519918
-0.000371237
-0.00111811
-0.00172465
-0.00219984
-0.00255579
-0.00280574
-0.00296717
-0.00307892
-0.00315655
-0.00290621
-0.00145759
0.0182055
0.0181309
0.0178674
0.0174029
0.0168288
0.0161623
0.0153854
0.0144542
0.0134176
0.0122858
0.0110593
0.00976074
0.00841836
0.00706358
0.00572963
0.00444911
0.00325129
0.00215995
0.00119192
0.000356593
-0.000343781
-0.000913136
-0.00136024
-0.00169692
-0.00193595
-0.00209373
-0.00220687
-0.00229398
-0.00207926
-0.000698327
0.0175318
0.0173822
0.0171537
0.0167555
0.0162516
0.0156557
0.014962
0.0141302
0.013176
0.0121404
0.0110145
0.00981694
0.00857496
0.00731833
0.0060785
0.00488643
0.00376997
0.00275172
0.00184766
0.00106664
0.000410656
-0.000124207
-0.000546477
-0.000867602
-0.00109988
-0.00125858
-0.00137804
-0.00147894
-0.00130331
-6.08473e-06
0.0168355
0.016616
0.0164244
0.0160916
0.0156572
0.0151321
0.0145177
0.013787
0.0129174
0.0119759
0.0109513
0.00985586
0.00871558
0.00755861
0.00641442
0.00531216
0.00427804
0.00333334
0.00249304
0.00176536
0.00115199
0.000649039
0.000248264
-6.13386e-05
-0.000291458
-0.000456257
-0.000587488
-0.000707088
-0.000574748
0.000618782
0.0161071
0.0158249
0.0156728
0.0154051
0.0150397
0.0145863
0.01405
0.0134172
0.0126394
0.0117893
0.0108673
0.00987606
0.00883983
0.00778513
0.00673931
0.00572937
0.00477969
0.00390995
0.00313395
0.00245912
0.00188679
0.0014131
0.00103017
0.000727537
0.000494263
0.00031728
0.000167842
2.39288e-05
0.00010802
0.00117398
0.015335
0.0150015
0.014892
0.0146901
0.0143943
0.0140148
0.0135556
0.013014
0.0123388
0.0115769
0.0107595
0.00987574
0.008947
0.00799841
0.00705495
0.00614118
0.00527922
0.00448686
0.00377645
0.00315441
0.00262161
0.00217424
0.0018049
0.00150387
0.00126105
0.00106487
0.000889491
0.000714575
0.000744416
0.00165565
0.0145035
0.0141363
0.0140744
0.0139401
0.0137152
0.0134111
0.0130296
0.0125747
0.0120101
0.0113373
0.0106254
0.009853
0.00903624
0.00819885
0.00736312
0.00655071
0.00578103
0.0050695
0.00442661
0.00385754
0.00336258
0.002938
0.00257712
0.00227116
0.00201117
0.00178739
0.0015773
0.00136371
0.00133178
0.00205886
0.0135921
0.0132165
0.0132085
0.0131457
0.0129954
0.0127687
0.012467
0.012099
0.0116453
0.0110688
0.0104627
0.00980587
0.00910662
0.00838671
0.00766542
0.0069609
0.00628919
0.00566274
0.00508969
0.00457367
0.00411422
0.00370792
0.00334915
0.00303034
0.00274413
0.00248275
0.00222784
0.00196668
0.00186461
0.00237848
0.0125816
0.012238
0.0122888
0.0122998
0.0122295
0.0120847
0.0118658
0.011586
0.0112391
0.0107672
0.0102668
0.00973085
0.00915571
0.00856102
0.00796266
0.00737453
0.00680837
0.00627273
0.00577271
0.00530972
0.00488249
0.0044891
0.00412476
0.00378342
0.00345993
0.00314925
0.00283787
0.00251957
0.00233765
0.00261112
0.0114394
0.0112286
0.0113532
0.011428
0.011434
0.0113703
0.0112327
0.0110366
0.0107869
0.0104268
0.0100284
0.00961734
0.00917457
0.00871656
0.00825516
0.00779859
0.00735254
0.00691986
0.00650103
0.00609407
0.00569641
0.0053108
0.00493136
0.00455423
0.004178
0.0038016
0.00341759
0.0030282
0.00274947
0.00275663
0.00996619
0.0101314
0.0104257
0.0105628
0.0106276
0.0106319
0.0105655
0.01044
0.0102724
0.0100292
0.00973196
0.00945026
0.00915305
0.00885151
0.00855156
0.00825309
0.00795259
0.00764433
0.00732172
0.00697884
0.00661266
0.00622369
0.00581278
0.00537944
0.00492722
0.00446075
0.00398006
0.00349558
0.00309027
0.00280999
0.00751647
0.00824971
0.00899351
0.00935703
0.00955991
0.00968433
0.00973359
0.00971938
0.00966716
0.00956975
0.00941071
0.00928073
0.00914804
0.00901637
0.00888406
0.00874173
0.00857623
0.00837505
0.00812611
0.00782431