/*--------------------------------*- C++ -*----------------------------------*\
  =========                 |
  \\      /  F ield         | OpenFOAM: The Open Source CFD Toolbox
   \\    /   O peration     | Website:  https://openfoam.org
    \\  /    A nd           | Version:  12
     \\/     M anipulation  |
\*---------------------------------------------------------------------------*/
FoamFile
{
    format      ascii;
    class       volScalarField;
    location    "320";
    object      pPrime2Mean;
}
// * * * * * * * * * * * * * * * * * * * * * * * * * * * * * * * * * * * * * //

dimensions      [0 4 -4 0 0 0 0];

internalField   nonuniform List<scalar> 
6750
(
0.00410845
0.00410247
0.00409492
0.00408824
0.00408068
0.0041097
0.00410135
0.00408825
0.00407272
0.0040564
0.00412876
0.00411841
0.00410144
0.00407972
0.00405638
0.00416479
0.00415376
0.0041355
0.00411173
0.00408627
0.00421557
0.00420546
0.00418867
0.00416658
0.00414291
0.00427749
0.00426972
0.00425668
0.00423917
0.00422033
0.004346
0.00434161
0.00433405
0.00432328
0.00431156
0.00441626
0.00441595
0.00441497
0.00441236
0.00440937
0.00448379
0.00448785
0.00449393
0.00450015
0.00450671
0.0045448
0.00455316
0.00456622
0.00458121
0.00459735
0.00459643
0.00460871
0.00462813
0.00465119
0.00467623
0.00463685
0.00465241
0.00467718
0.00470706
0.0047397
0.00466517
0.00468323
0.00471205
0.00474712
0.0047856
0.00468137
0.00470105
0.00473248
0.00477092
0.00481325
0.0046861
0.00470651
0.0047391
0.00477909
0.00482319
0.00468046
0.00470076
0.00473318
0.00477298
0.00481688
0.00466442
0.00468377
0.0047147
0.00475258
0.00479428
0.00463701
0.00465452
0.00468252
0.00471665
0.00475409
0.00459773
0.00461257
0.00463623
0.00466482
0.00469603
0.0045468
0.0045582
0.00457628
0.00459777
0.00462107
0.00448525
0.00449263
0.00450417
0.0045174
0.00453158
0.00441507
0.00441809
0.00442257
0.00442691
0.00443139
0.00433925
0.00433788
0.00433526
0.00433076
0.00432566
0.00426167
0.00425624
0.00424708
0.00423445
0.00422069
0.0041869
0.00417812
0.00416355
0.00414427
0.00412348
0.0041198
0.00410875
0.0040905
0.00406675
0.00404127
0.00406498
0.00405306
0.00403344
0.00400812
0.00398099
0.00402605
0.00401486
0.00399662
0.00397344
0.00394857
0.00400524
0.00399612
0.00398187
0.00396496
0.00394723
0.00400328
0.00399669
0.00398819
0.00398043
0.00397194
0.00405371
0.00402305
0.00396443
0.00388118
0.0037748
0.00364642
0.00349647
0.00332533
0.00313467
0.00292706
0.00270477
0.00247339
0.00223787
0.00200394
0.00177736
0.00156331
0.00136591
0.00118801
0.00103096
0.000894611
0.000777658
0.000679921
0.000598162
0.000530223
0.000474136
0.000428018
0.000390301
0.000359522
0.000334635
0.000318688
0.00405893
0.00400801
0.00393274
0.00383562
0.00371759
0.0035794
0.00342196
0.00324669
0.00305585
0.00285201
0.00263703
0.00241662
0.00219456
0.00197548
0.00176391
0.00156382
0.00137841
0.0012099
0.00105949
0.00092753
0.000813757
0.000715658
0.000632941
0.00056352
0.0005056
0.000457645
0.000418206
0.000385789
0.000358774
0.000337777
0.0040451
0.00397774
0.00388935
0.00378235
0.00365657
0.00351267
0.0033517
0.00317533
0.00298616
0.00278632
0.00257845
0.00236766
0.00215702
0.00195038
0.0017513
0.00156288
0.00138755
0.00122709
0.00108248
0.000954052
0.000841516
0.000744142
0.000660814
0.000590121
0.000530607
0.000480876
0.000439592
0.000405357
0.000377044
0.0003553
0.00402183
0.00394366
0.00384602
0.00373208
0.00360169
0.00345507
0.00329316
0.00311777
0.00293145
0.00273572
0.00253432
0.00233123
0.00212926
0.00193176
0.00174173
0.00156175
0.00139384
0.00123948
0.00109954
0.000974345
0.000863719
0.000767209
0.000683879
0.000612589
0.000552091
0.000501074
0.000458147
0.000421996
0.000391989
0.000370924
0.00399551
0.00390983
0.00380523
0.00368599
0.0035526
0.00340481
0.00324345
0.00307019
0.00288729
0.0026959
0.00250032
0.00230353
0.00210829
0.00191763
0.00173428
0.00156054
0.00139825
0.00124873
0.00111277
0.000990686
0.000882315
0.000787186
0.000704511
0.00063328
0.000572345
0.000520454
0.000476213
0.000438214
0.000406671
0.000386228
0.00397028
0.00387892
0.00376915
0.00364587
0.00351026
0.00336225
0.0032022
0.00303158
0.00285215
0.00266504
0.00247443
0.0022827
0.00209259
0.00190697
0.00172844
0.00155923
0.00140113
0.00125543
0.00112285
0.00100365
0.000897621
0.000804224
0.000722665
0.000651951
0.00059097
0.000538534
0.000493241
0.000453754
0.000420952
0.000401217
0.00394871
0.00385296
0.00373914
0.00361289
0.00347573
0.00332788
0.00316947
0.00300158
0.0028253
0.0026421
0.00245556
0.00226774
0.00208137
0.00189926
0.001724
0.00155791
0.00140281
0.00126
0.00113019
0.00101356
0.00090981
0.000818285
0.000738091
0.00066818
0.000607434
0.00055472
0.000508678
0.000468062
0.000434281
0.000415348
0.00393288
0.00383368
0.0037166
0.00358798
0.00344989
0.00330228
0.00314551
0.00298011
0.00280645
0.00262656
0.00244309
0.00225804
0.00207413
0.00189416
0.00172086
0.00155665
0.00140349
0.00126273
0.00113508
0.00102065
0.000919008
0.000829354
0.000750644
0.000681727
0.00062147
0.000568671
0.00052215
0.000480782
0.000446275
0.000428111
0.00392472
0.00382268
0.00370273
0.00357203
0.00343324
0.00328592
0.00313055
0.00296713
0.00279554
0.00261812
0.00243666
0.00225322
0.00207052
0.00189146
0.00171891
0.00155549
0.0014033
0.0012638
0.00113771
0.00102506
0.000925285
0.000837411
0.000760224
0.000692445
0.000632889
0.000580302
0.000533594
0.000491684
0.000456634
0.000439096
0.00392608
0.00382156
0.0036988
0.003566
0.00342642
0.00327941
0.00312495
0.00296275
0.00279262
0.00261663
0.00243607
0.00225307
0.00207037
0.00189102
0.00171809
0.00155443
0.00140231
0.00126332
0.00113818
0.00102686
0.000928657
0.00084242
0.00076675
0.000700227
0.00064152
0.000589437
0.000542793
0.000500524
0.000465064
0.000447946
0.00393889
0.00383192
0.00370613
0.00357087
0.00343014
0.00328314
0.00312909
0.00296729
0.00279783
0.00262215
0.00244133
0.00225754
0.00207361
0.00189278
0.00171837
0.00155346
0.00140056
0.00126132
0.00113653
0.00102607
0.000929114
0.000844333
0.000770144
0.000704954
0.000647296
0.000595932
0.000549528
0.000507057
0.00047129
0.00045436
0.00396525
0.00385555
0.00372621
0.00358787
0.00344541
0.00329786
0.0031435
0.00298125
0.0028115
0.00263491
0.00245258
0.00226671
0.00208027
0.00189674
0.00171973
0.00155259
0.00139802
0.00125781
0.00113274
0.00102267
0.00092662
0.000843102
0.000770341
0.000706554
0.000650085
0.000599624
0.000553579
0.000511037
0.000475077
0.000458111
0.00400759
0.00389457
0.00376096
0.00361868
0.00347381
0.00332461
0.00316894
0.00300536
0.00283411
0.00265531
0.0024701
0.00228077
0.00209046
0.00190295
0.00172219
0.0015518
0.00139468
0.00125273
0.00112678
0.00101661
0.000921128
0.000838672
0.000767272
0.000704919
0.000649724
0.000600199
0.000554702
0.000512254
0.000476247
0.000459052
0.00406885
0.00395154
0.00381266
0.00366526
0.00351678
0.00336481
0.00320664
0.0030406
0.00286642
0.00268393
0.00249432
0.00229999
0.00210436
0.00191154
0.00172581
0.00155109
0.00139049
0.00124602
0.00111856
0.00100782
0.000912581
0.000830996
0.000760868
0.000699926
0.000646089
0.000597581
0.000552748
0.000510585
0.000474722
0.000457153
0.00415258
0.00402969
0.00388421
0.00373021
0.00357673
0.0034205
0.00325825
0.00308829
0.00290949
0.00272158
0.00252582
0.00232479
0.00212223
0.00192262
0.00173063
0.00155045
0.00138539
0.0012376
0.00110798
0.000996205
0.000900901
0.000819995
0.000751036
0.000691495
0.00063903
0.000591636
0.000547644
0.000506013
0.000470558
0.000452562
0.00426324
0.0041332
0.00397958
0.00381716
0.00365684
0.00349439
0.00332625
0.00315033
0.00296478
0.00276934
0.00256536
0.00235566
0.00214437
0.00193639
0.00173673
0.00154987
0.00137932
0.00122738
0.00109496
0.000981663
0.000885967
0.000805532
0.00073763
0.00067948
0.000628437
0.000582312
0.00053942
0.000498671
0.000464004
0.000445686
0.00440668
0.00426765
0.00410408
0.00393094
0.00376145
0.0035903
0.00341392
0.00322922
0.00303418
0.00282857
0.00261385
0.0023932
0.00217117
0.00195305
0.00174417
0.00154931
0.00137221
0.00121527
0.0010794
0.000964096
0.000867641
0.000787445
0.000720482
0.000663703
0.000614251
0.000569676
0.000528285
0.000488941
0.000455638
0.000437345
0.0045908
0.00444059
0.00426485
0.00407792
0.00389618
0.00371323
0.00352513
0.0033281
0.00312009
0.00290096
0.00267246
0.00243818
0.00220306
0.00197277
0.00175298
0.00154873
0.00136397
0.00120118
0.0010612
0.000943386
0.000845802
0.000765615
0.000699521
0.000644185
0.000596548
0.000554002
0.000514749
0.000477628
0.000446587
0.000429024
0.00482647
0.0046621
0.00447124
0.00426647
0.00406839
0.00386941
0.00366485
0.00345085
0.00322542
0.00298862
0.00274263
0.00249146
0.00224049
0.00199574
0.00176318
0.00154809
0.00135453
0.001185
0.00104024
0.000919409
0.000820366
0.000740032
0.000674847
0.000621185
0.0005758
0.000535995
0.000499915
0.000466311
0.000438908
0.000423285
0.0051287
0.00494594
0.00473584
0.00450761
0.00428754
0.00406642
0.00383934
0.00360232
0.00335375
0.00309408
0.00282598
0.00255399
0.00228392
0.0020221
0.00177477
0.00154732
0.00134382
0.00116666
0.00101643
0.000892112
0.00079136
0.000710887
0.000646886
0.000595478
0.000553215
0.000517312
0.000485997
0.000457982
0.000436338
0.000424572
0.00551845
0.00531135
0.00507606
0.00481639
0.00456602
0.00431443
0.00405648
0.00378854
0.00350943
0.00322026
0.00292435
0.0026268
0.00233382
0.00205204
0.00178776
0.00154636
0.00133176
0.0011461
0.000989779
0.000861591
0.00075904
0.000678687
0.000616535
0.000568503
0.000530941
0.000501032
0.000477071
0.000458047
0.000445509
0.000440713
0.00602518
0.0057846
0.00551576
0.00521312
0.00492073
0.00462697
0.00432675
0.00401713
0.00369776
0.0033706
0.0030398
0.00271101
0.00239076
0.00208573
0.00180216
0.00154513
0.00131823
0.00112327
0.000960368
0.000828139
0.000723998
0.000644454
0.000585454
0.000542815
0.000512764
0.000492497
0.000480436
0.00047598
0.000477958
0.000485444
0.0066887
0.00640159
0.0060877
0.00572531
0.00537431
0.00502193
0.00466339
0.0042975
0.00392506
0.00354917
0.00317478
0.00280797
0.00245534
0.0021234
0.00181792
0.00154349
0.00130313
0.00109818
0.000928434
0.000792346
0.000687323
0.000609996
0.00055649
0.000522758
0.000505085
0.000500752
0.000508305
0.000527809
0.000552787
0.00058144
0.00755913
0.00720898
0.00683399
0.00638905
0.00595622
0.00552176
0.00508292
0.00464113
0.00419895
0.00376073
0.00333207
0.00291913
0.0025282
0.00216513
0.00183489
0.00154118
0.00128625
0.00107085
0.000894378
0.000755183
0.000650814
0.000578294
0.000534319
0.000515444
0.000518411
0.000540645
0.000580731
0.000639105
0.000699587
0.000762209
0.00869487
0.00826114
0.00780621
0.00724926
0.00670285
0.00615354
0.00560475
0.00506134
0.00452812
0.00401064
0.00351468
0.00304596
0.00260979
0.00221082
0.00185265
0.00153771
0.00126719
0.00104112
0.000858559
0.00071786
0.000616986
0.00055377
0.000526083
0.000531816
0.00056882
0.000634866
0.000727614
0.00084659
0.000959183
0.00107118
0.010156
0.00961371
0.00905523
0.00834869
0.00764648
0.00694183
0.00624641
0.00557022
0.00492061
0.00430392
0.0037255
0.0031898
0.00270044
0.00226008
0.00187036
0.00153195
0.00124472
0.00100791
0.000820387
0.000680856
0.000588174
0.00054164
0.000541103
0.000586694
0.000678105
0.000813362
0.000987679
0.00119603
0.00138064
0.00155972
0.0119746
0.0112917
0.0105942
0.00969593
0.00879484
0.0078955
0.00701837
0.00617938
0.00538824
0.0046516
0.00397387
0.00335779
0.00280474
0.00231496
0.00188773
0.00152174
0.00121546
0.000967462
0.000776696
0.000642735
0.000566
0.000547952
0.00059103
0.000698014
0.000870526
0.00110626
0.00139633
0.00172721
0.00201229
0.00228028
0.0142765
0.0133587
0.0124347
0.0113114
0.0101906
0.00907926
0.00800148
0.00697653
0.0060168
0.00513093
0.00432428
0.00359947
0.00295689
0.00239524
0.00191218
0.001505
0.00117128
0.000909377
0.000718775
0.000600186
0.000555495
0.000587534
0.000699522
0.000894031
0.00117146
0.00152768
0.00195165
0.00242835
0.00287358
0.00330074
0.0178515
0.0166672
0.0154708
0.0140845
0.0126871
0.0112766
0.00988605
0.00854688
0.00728388
0.00611637
0.00505713
0.00411285
0.00328534
0.00257312
0.00197304
0.0014818
0.00109704
0.000818
0.000645853
0.000583272
0.00063319
0.000797269
0.00107474
0.00145986
0.00194102
0.00249914
0.00310996
0.00375824
0.00432571
0.00488805
0.0290027
0.0268787
0.0244669
0.0220147
0.0195692
0.0171302
0.0147521
0.0124873
0.0103786
0.00845937
0.00675109
0.00526312
0.00399564
0.00294337
0.00209931
0.00145803
0.00101802
0.000782801
0.000760093
0.000959885
0.0013916
0.00206015
0.00296124
0.00407933
0.00538663
0.00684332
0.00839971
0.0100429
0.0117279
0.013249
0.00406441
0.00404303
0.00402477
0.00400734
0.00399172
0.00397906
0.00397084
0.00396862
0.00397407
0.00398898
0.00401528
0.00405517
0.0041112
0.00418648
0.00428479
0.0044109
0.00457098
0.00477347
0.00503009
0.00535735
0.00577869
0.00632712
0.00704725
0.00799397
0.00923004
0.0108236
0.0128481
0.0155231
0.019576
0.0313762
0.00404084
0.00402516
0.00401185
0.00400086
0.00399394
0.00399188
0.00399563
0.00400636
0.0040255
0.00405472
0.00409598
0.00415166
0.00422458
0.00431819
0.00443676
0.00458569
0.00477204
0.00500537
0.00529882
0.00567069
0.00614663
0.0067624
0.00756562
0.00861433
0.00997407
0.0117241
0.0139924
0.0170428
0.021448
0.033927
0.00404267
0.00403893
0.00403697
0.00403699
0.00404091
0.00404982
0.004065
0.00408784
0.0041199
0.00416297
0.00421914
0.00429092
0.00438134
0.00449412
0.0046339
0.00480663
0.00502021
0.00528523
0.00561616
0.0060329
0.00656312
0.00724504
0.00812897
0.00927512
0.0107506
0.0126453
0.0151363
0.0185294
0.0231828
0.0367567
0.00407705
0.00408541
0.00409535
0.0041071
0.00412283
0.00414387
0.00417164
0.00420769
0.00425374
0.00431174
0.00438397
0.00447311
0.00458242
0.00471591
0.00487859
0.00507693
0.00531948
0.00561765
0.0059868
0.00644779
0.00702927
0.00777027
0.0087214
0.00994125
0.0114936
0.0134772
0.0161351
0.019879
0.0247043
0.0397959
0.00413945
0.00415881
0.00418022
0.00420365
0.00423145
0.00426516
0.00430638
0.00435675
0.00441812
0.00449257
0.00458254
0.00469092
0.00482121
0.0049777
0.0051658
0.00539248
0.00566691
0.00600116
0.00641122
0.00691849
0.00755187
0.00835016
0.00936253
0.0106434
0.0122502
0.0142893
0.0170846
0.0212129
0.0260829
0.0430106
0.00422343
0.0042525
0.00428456
0.00431938
0.00435925
0.00440587
0.00446098
0.00452635
0.00460394
0.00469595
0.00480496
0.00493404
0.00508689
0.00526809
0.00548337
0.00574015
0.00604806
0.00641969
0.00687131
0.00742435
0.00810727
0.00895757
0.0100215
0.0113471
0.0129834
0.0150443
0.0179537
0.022547
0.0273272
0.0465208
0.00432181
0.00435932
0.00440108
0.00444676
0.00449847
0.00455796
0.00462707
0.00470768
0.00480186
0.00491193
0.00504061
0.0051911
0.00536727
0.00557392
0.00581707
0.00610447
0.00644608
0.00685468
0.0073466
0.00794286
0.00867088
0.00956618
0.010671
0.0120255
0.0136678
0.0157194
0.0187227
0.0239093
0.0284717
0.0504953
0.00442714
0.00447193
0.00452235
0.00457813
0.00464115
0.00471314
0.00479596
0.00489157
0.00500214
0.0051301
0.00527828
0.00544998
0.00564921
0.00588092
0.00615137
0.00646851
0.00684245
0.00728597
0.00781516
0.00845041
0.00921784
0.0101506
0.0112865
0.0126563
0.0142855
0.016301
0.019376
0.0253262
0.0295635
0.055115
0.00453209
0.00458311
0.00464113
0.00470608
0.0047796
0.00486333
0.00495914
0.00506902
0.00519518
0.00534015
0.00550682
0.00569861
0.0059196
0.00617486
0.00647079
0.00681541
0.00721886
0.00769375
0.00825582
0.00892473
0.00972526
0.0106883
0.0118473
0.0132224
0.0148242
0.0167827
0.0199021
0.0268162
0.0306601
0.0605256
0.00463002
0.00468631
0.00475089
0.00482391
0.00490683
0.0050012
0.00510884
0.00523173
0.00537211
0.00553254
0.00571595
0.00592584
0.00616637
0.00644267
0.00676118
0.00712992
0.00755889
0.00806055
0.00865023
0.00934688
0.0101742
0.0111612
0.0123374
0.0137118
0.0152773
0.0171655
0.0202967
0.028383
0.0318209
0.0667671
0.00471549
0.00477613
0.00484618
0.00492606
0.00501705
0.00512063
0.00523854
0.00537271
0.0055254
0.00569915
0.00589694
0.00612229
0.00637943
0.0066735
0.0070109
0.0073996
0.00784947
0.00837274
0.00898439
0.00970278
0.0105507
0.0115562
0.0127456
0.0141166
0.0156421
0.0174553
0.0205653
0.0300062
0.0330882
0.0736876
0.00478452
0.00484858
0.004923
0.00500842
0.00510598
0.00521707
0.00534335
0.00548671
0.00564937
0.00583389
0.00604326
0.00628101
0.00655137
0.00685948
0.00721168
0.00761583
0.00808171
0.00862136
0.00924944
0.00998384
0.0108469
0.011866
0.0130657
0.0144328
0.0159189
0.0176612
0.0207224
0.0316311
0.0344611
0.0808593
0.00483468
0.00490127
0.00497894
0.0050685
0.00517099
0.00528771
0.00542024
0.00557045
0.00574053
0.00593303
0.00615096
0.00639782
0.00667783
0.0069961
0.00735891
0.00777406
0.00825123
0.0088023
0.00944168
0.0101869
0.0110601
0.0120886
0.0132962
0.0146601
0.0161109
0.0177928
0.0207898
0.0331651
0.035873
0.087601
0.00486513
0.00493335
0.00501315
0.00510543
0.00521114
0.00533152
0.00546811
0.00562275
0.00579762
0.00599529
0.00621872
0.00647141
0.00675754
0.0070822
0.00745164
0.00787362
0.00835776
0.0089158
0.009562
0.0103137
0.0111927
0.0122269
0.0134399
0.0148017
0.0162247
0.0178615
0.0207928
0.0344534
0.0371574
0.0930689
0.00487638
0.00494539
0.00502623
0.00511983
0.00522708
0.0053492
0.00548771
0.00564443
0.00582157
0.00602167
0.00624768
0.00650308
0.00679202
0.00711961
0.00749209
0.00791723
0.0084046
0.00896588
0.00961522
0.0103698
0.0112516
0.0122886
0.0135046
0.0148661
0.0162739
0.0178869
0.020768
0.0351939
0.0379679
0.0961843
0.00486996
0.00493901
0.00501988
0.00511349
0.00522074
0.00534283
0.00548129
0.00563795
0.00581502
0.00601503
0.00624091
0.00649614
0.0067849
0.00711231
0.00748467
0.00790975
0.00839713
0.0089585
0.00960801
0.0103629
0.011245
0.0122826
0.0134994
0.0148615
0.0162698
0.0178836
0.0207608
0.0351804
0.0379582
0.0963035
0.00484586
0.00491418
0.00499408
0.00508644
0.00519216
0.00531249
0.00544896
0.00560345
0.00577812
0.00597552
0.00619859
0.00645083
0.00673645
0.00706063
0.00742971
0.00785153
0.00833573
0.00889408
0.00954081
0.0102933
0.0111735
0.0122095
0.0134245
0.0147884
0.016213
0.017852
0.0207725
0.0344177
0.0371321
0.0934109
0.00480267
0.00486943
0.00494731
0.00503707
0.00513967
0.0052564
0.00538884
0.00553887
0.00570868
0.00590079
0.00611818
0.00636436
0.00664363
0.0069612
0.00732348
0.00773841
0.00821574
0.00876736
0.00940771
0.0101544
0.0110296
0.012061
0.0132719
0.0146389
0.0160926
0.0177778
0.0207608
0.0331191
0.0358413
0.0881219
0.00474019
0.00480451
0.00487927
0.00496505
0.0050629
0.00517416
0.00530047
0.00544373
0.00560612
0.00579018
0.00599891
0.00623586
0.00650533
0.00681261
0.0071642
0.00756811
0.00803426
0.00857473
0.00920423
0.00994072
0.0108066
0.0118296
0.0130335
0.0144046
0.015895
0.0176423
0.020691
0.031589
0.0344326
0.0815091
0.00465954
0.00472055
0.00479108
0.00487153
0.00496303
0.005067
0.00518513
0.00531935
0.00547185
0.00564518
0.00584233
0.00606684
0.00632305
0.00661626
0.00695304
0.00734153
0.00779177
0.00831611
0.0089296
0.00965065
0.0105022
0.011512
0.0127061
0.0140818
0.0156134
0.0174344
0.0205386
0.0299801
0.033071
0.074422
0.0045634
0.00462021
0.00468543
0.00475924
0.0048429
0.00493792
0.00504604
0.00516919
0.00530957
0.00546972
0.00565258
0.00586169
0.00610133
0.00637682
0.00669477
0.00706337
0.00749284
0.00799574
0.00858754
0.00928722
0.0101184
0.01111
0.012291
0.0136708
0.0152447
0.0171448
0.0202817
0.0283818
0.0318214
0.0675477
0.00445596
0.00450769
0.00456658
0.00463255
0.00470706
0.00479171
0.00488827
0.00499869
0.00512513
0.00527005
0.00543637
0.00562754
0.00584778
0.00610234
0.00639778
0.00674237
0.00714638
0.00762259
0.00818687
0.00885888
0.00966326
0.0106307
0.0117942
0.0131755
0.0147886
0.0167649
0.0199043
0.0268442
0.0306836
0.0613226
0.00434277
0.00438854
0.00444009
0.00449718
0.00456148
0.00463466
0.00471853
0.004815
0.00492616
0.00505441
0.00520253
0.00537389
0.00557258
0.00580371
0.00607375
0.00639086
0.00676535
0.00721016
0.00774142
0.00837952
0.00915037
0.0100868
0.011227
0.0126038
0.014248
0.0162889
0.0193991
0.0253839
0.0296147
0.055909
0.00423048
0.00426934
0.00431258
0.00435989
0.00441318
0.00447416
0.00454462
0.00462641
0.00472154
0.00483228
0.00496129
0.00511176
0.00528761
0.00549378
0.00573651
0.00602381
0.00636588
0.00677558
0.00726926
0.00786786
0.00859857
0.0094968
0.0106056
0.0119684
0.01363
0.0157154
0.0187677
0.0239949
0.0285553
0.0512772
0.0041264
0.00415723
0.00419117
0.00422796
0.00426971
0.00431811
0.00437487
0.00444173
0.00452061
0.00461364
0.00472334
0.00485269
0.00500542
0.00518618
0.00540097
0.00565751
0.00596567
0.00633812
0.0067911
0.00734585
0.00803065
0.00888316
0.00995103
0.0112867
0.0129467
0.0150499
0.0180198
0.0226577
0.0274484
0.0472913
0.00403793
0.0040595
0.00408316
0.00410886
0.00413878
0.00417447
0.00421754
0.00426961
0.00433248
0.00440818
0.00449905
0.00460789
0.00473814
0.00489421
0.00508174
0.00530801
0.00558247
0.00591728
0.0063283
0.00683671
0.00747135
0.00827147
0.0092882
0.0105812
0.0122163
0.0143054
0.0171696
0.0213464
0.0262472
0.0437778
0.0039722
0.00398318
0.00399569
0.00400987
0.00402781
0.00405085
0.00408046
0.00411818
0.00416571
0.00422494
0.00429805
0.00438763
0.00449689
0.00462991
0.00479194
0.00498978
0.00523225
0.00553085
0.00590072
0.00636256
0.00694512
0.0076882
0.00864483
0.00987935
0.0114643
0.0135041
0.0162367
0.0200342
0.0249173
0.040573
0.00393557
0.00393484
0.00393564
0.00393806
0.00394399
0.00395462
0.0039713
0.00399544
0.00402859
0.0040725
0.00412923
0.0042012
0.00429141
0.00440366
0.00454279
0.00471507
0.00492864
0.00519413
0.00552585
0.00594364
0.00647552
0.00716071
0.00805231
0.00921641
0.0107284
0.0126834
0.0152524
0.0187064
0.0234493
0.037558
0.00393254
0.00392018
0.00390958
0.00390064
0.00389519
0.00389418
0.00389868
0.00390994
0.00392938
0.00395869
0.00399984
0.0040552
0.00412765
0.0042207
0.00433879
0.00448752
0.00467414
0.00490829
0.00520308
0.00557689
0.00605593
0.00667713
0.00749087
0.00856071
0.00995911
0.0117699
0.0141158
0.0172347
0.0217566
0.034749
0.00395703
0.00393859
0.00392208
0.00390571
0.00389061
0.00387803
0.00386951
0.0038667
0.00387134
0.00388531
0.00391059
0.00394948
0.00400462
0.00407926
0.00417729
0.00430355
0.0044643
0.00466807
0.00492685
0.00525745
0.00568376
0.00624002
0.00697329
0.00794357
0.00921854
0.0108705
0.0129704
0.0157217
0.0199114
0.0322134
0.0298303
0.0276695
0.0251868
0.022644
0.0201044
0.017576
0.0151167
0.0127811
0.0106128
0.00864517
0.00689906
0.00538281
0.00409544
0.0030305
0.00217999
0.00153773
0.0011016
0.000874882
0.000865079
0.00108194
0.0015345
0.00222691
0.00315347
0.00429657
0.00562572
0.00709793
0.00866076
0.0102998
0.0119689
0.0134716
0.018202
0.0170268
0.0158163
0.0143916
0.0129489
0.0114945
0.0100646
0.00869251
0.00740341
0.00621616
0.00514262
0.00418847
0.00335455
0.00263859
0.0020368
0.0015453
0.0011613
0.000883478
0.000712581
0.000650899
0.000701017
0.000864309
0.00113976
0.00152141
0.00199741
0.00254834
0.00315007
0.00378835
0.00433954
0.00489387
0.0144843
0.0135818
0.0126598
0.0115212
0.0103767
0.0092395
0.008137
0.00709047
0.0061132
0.00521383
0.00439731
0.00366562
0.00301846
0.00245391
0.00196906
0.00156067
0.00122574
0.000961974
0.000768163
0.000644335
0.000591824
0.000613167
0.000711643
0.000890265
0.00115023
0.00148848
0.0018955
0.0023583
0.00279065
0.00321419
0.012098
0.0114238
0.0107274
0.00981991
0.0089059
0.00799362
0.00710476
0.00625593
0.00545699
0.00471449
0.0040326
0.00341373
0.00285896
0.00236821
0.00194048
0.00157409
0.00126705
0.00101735
0.000823282
0.000683783
0.000598888
0.000570122
0.00060055
0.000694015
0.000853318
0.00107711
0.00135705
0.00168008
0.0019611
0.00222922
0.0102035
0.00966468
0.00910489
0.00839362
0.00768791
0.00698197
0.0062868
0.00561163
0.00496326
0.00434774
0.00377032
0.00323548
0.00274689
0.00230723
0.00191806
0.0015799
0.00129227
0.00105396
0.000863287
0.000718481
0.000618237
0.000562194
0.000551127
0.000586492
0.000669252
0.000798186
0.00096844
0.00117416
0.00135827
0.0015372
0.00868545
0.00825292
0.00779637
0.00723861
0.00669485
0.00615187
0.00561105
0.00507586
0.00455007
0.00403871
0.00354746
0.00308222
0.00264858
0.00225139
0.00189437
0.00157989
0.00130891
0.00108112
0.000895242
0.000749416
0.000641676
0.000570357
0.000534233
0.000532296
0.00056335
0.00062566
0.000716744
0.000835291
0.000948627
0.00106082
0.00751132
0.00716252
0.00678726
0.00634467
0.00591789
0.00549304
0.00506569
0.00463571
0.00420442
0.00377539
0.00335396
0.00294643
0.00255937
0.00219896
0.00187033
0.00157719
0.00132167
0.00110434
0.000924481
0.000780468
0.000670139
0.000591072
0.000540688
0.000516266
0.000515073
0.000534778
0.000573892
0.000632506
0.000694505
0.000758717
0.00661663
0.00633191
0.00601946
0.00566132
0.00531767
0.0049759
0.00462985
0.00427705
0.00391707
0.00355208
0.00318657
0.0028266
0.00247899
0.00215053
0.0018472
0.00157361
0.00133273
0.00112588
0.000952916
0.000812534
0.000702561
0.000620166
0.000562006
0.000524436
0.000503936
0.000497814
0.000504561
0.000524178
0.000550555
0.000581174
0.00593846
0.00570069
0.00543441
0.0051368
0.00485213
0.00456892
0.00428111
0.00398476
0.00367838
0.00336301
0.00304217
0.00272131
0.00240707
0.00210637
0.00182558
0.00156985
0.00134276
0.00114619
0.000980471
0.000844604
0.000736495
0.000653149
0.000590902
0.000545761
0.00051394
0.000492494
0.000479733
0.00047503
0.000477661
0.000486427
0.00542218
0.00521778
0.00498552
0.00473149
0.00448866
0.00424719
0.00400116
0.00374619
0.00348014
0.00320318
0.00291794
0.00262918
0.00234309
0.00206643
0.00180566
0.00156617
0.00135189
0.00116511
0.00100653
0.000875409
0.000769778
0.000686664
0.000622365
0.000572863
0.000534372
0.000503825
0.000479306
0.00045969
0.000446975
0.00044247
0.00502588
0.0048454
0.00463842
0.00441572
0.00420306
0.00399157
0.00377586
0.00355138
0.0033157
0.00306841
0.00281145
0.00254893
0.0022865
0.00203059
0.00178748
0.0015626
0.00136005
0.00118236
0.0010305
0.000903956
0.000800913
0.000718537
0.00065325
0.000601172
0.000558641
0.00052254
0.000490791
0.000461961
0.000439487
0.000427172
0.00471889
0.0045562
0.00436837
0.00416892
0.00397808
0.00378821
0.00359454
0.00339259
0.00317974
0.00295525
0.00272063
0.00247943
0.00223678
0.00199865
0.001771
0.00155912
0.00136713
0.00119771
0.00105197
0.000929602
0.000828985
0.000747469
0.000681695
0.000627989
0.000582846
0.000543195
0.000506781
0.000472241
0.000443576
0.000426802
0.00447978
0.00433047
0.00415747
0.0039756
0.00380078
0.0036268
0.00344914
0.00326371
0.00306786
0.00286077
0.00264367
0.00241971
0.00219348
0.00197045
0.00175618
0.00155572
0.0013731
0.00121101
0.0010707
0.000952006
0.000853505
0.000772761
0.000706655
0.000651762
0.000604736
0.000562565
0.000523107
0.000485032
0.000452514
0.000433441
0.00429337
0.00415437
0.00399319
0.0038249
0.00366211
0.00349963
0.00333341
0.00315984
0.00297642
0.00278246
0.00257901
0.00236888
0.00215618
0.00194585
0.001743
0.0015524
0.00137793
0.00122224
0.00108663
0.000971066
0.000874302
0.000794108
0.000727597
0.000671611
0.000623003
0.000578976
0.000537515
0.000497309
0.000462526
0.000442598
0.00414859
0.00401787
0.00386638
0.00370861
0.00355478
0.00340057
0.00324223
0.0030769
0.00290239
0.00271819
0.0025253
0.00232618
0.00212449
0.00192467
0.00173143
0.00154921
0.0013817
0.00123147
0.00109983
0.000986851
0.000891412
0.00081147
0.00074438
0.00068725
0.000637183
0.000591717
0.000548902
0.000507499
0.000471566
0.000451721
0.00403743
0.00391347
0.00376993
0.00362035
0.00347304
0.00332453
0.00317141
0.00301151
0.00284326
0.00266623
0.00248138
0.0022909
0.00209803
0.00190677
0.00172145
0.00154622
0.00138453
0.00123885
0.00111048
0.000999526
0.000904982
0.000824984
0.000757105
0.00069872
0.000647286
0.000600623
0.000556875
0.000514891
0.000478549
0.000459346
0.00395395
0.00383542
0.00369827
0.00355497
0.0034122
0.00326731
0.00311756
0.00296102
0.00279699
0.00262511
0.00244625
0.00226237
0.00207639
0.00189196
0.00171304
0.00154349
0.00138655
0.00124456
0.00111877
0.00100929
0.000915226
0.000834867
0.000766014
0.000706316
0.000653566
0.000605863
0.000561458
0.000519277
0.000482968
0.000464609
0.0038935
0.00377921
0.00364705
0.00350839
0.00336865
0.00322589
0.00307807
0.00292347
0.00276205
0.00259364
0.00241902
0.00223998
0.00205922
0.00188006
0.00170617
0.0015411
0.00138791
0.00124878
0.00112489
0.00101636
0.000922361
0.000841365
0.000771403
0.000710394
0.000656366
0.000607736
0.00056284
0.000520674
0.000484618
0.000467029
0.00385233
0.00374126
0.003613
0.00347765
0.00333975
0.00319804
0.00305108
0.00289741
0.00273724
0.00257087
0.00239895
0.00222322
0.00204617
0.0018709
0.00170078
0.00153911
0.00138872
0.00125165
0.001129
0.0010209
0.000926586
0.000844704
0.000773513
0.000711179
0.000655975
0.000606517
0.00056121
0.000519169
0.00048346
0.000466411
0.00382734
0.00371874
0.00359355
0.00346064
0.00332373
0.00318225
0.00303524
0.00288174
0.00272167
0.00255603
0.00238547
0.00221165
0.00203697
0.00186433
0.00169683
0.00153754
0.00138905
0.00125328
0.00113123
0.00102304
0.000928053
0.000845054
0.000772533
0.000708886
0.000652577
0.000602293
0.000556738
0.000514901
0.000479573
0.000462781
0.00381596
0.00370942
0.00358675
0.00345573
0.00331935
0.00317752
0.00302976
0.00287562
0.00271468
0.00254858
0.00237812
0.00220496
0.00203142
0.00186023
0.00169429
0.0015364
0.00138896
0.00125373
0.00113165
0.00102288
0.00092685
0.000842518
0.000768576
0.000703623
0.000646312
0.000595371
0.000549639
0.000508069
0.000473145
0.000456298
0.00381599
0.00371151
0.00359113
0.00346172
0.00332571
0.00318311
0.00303403
0.00287843
0.00271584
0.00254814
0.00237664
0.00220295
0.00202939
0.00185855
0.00169312
0.00153568
0.00138844
0.00125302
0.0011303
0.00102045
0.000923024
0.000837152
0.000761711
0.000695482
0.000637293
0.000585855
0.000540084
0.000498898
0.000464421
0.000447234
0.00382541
0.00372336
0.00360535
0.00347753
0.00334191
0.00319852
0.0030476
0.00288973
0.00272483
0.00255449
0.00238089
0.00220558
0.00203087
0.00185927
0.00169331
0.00153537
0.00138748
0.00125112
0.00112714
0.00101573
0.000916585
0.000828985
0.000751996
0.000684556
0.000625568
0.000573873
0.000528295
0.000487621
0.000453696
0.000435919
0.00384224
0.00374334
0.00362817
0.00350226
0.00336719
0.00322303
0.00307005
0.0029093
0.00274149
0.00256765
0.00239093
0.00221293
0.00203595
0.00186246
0.00169488
0.00153543
0.00138599
0.00124793
0.00112208
0.00100868
0.000907513
0.000818045
0.000739496
0.000670933
0.000611312
0.000559586
0.000514381
0.000474491
0.000441282
0.00042274
0.00386445
0.00376977