/*--------------------------------*- C++ -*----------------------------------*\
  =========                 |
  \\      /  F ield         | OpenFOAM: The Open Source CFD Toolbox
   \\    /   O peration     | Website:  https://openfoam.org
    \\  /    A nd           | Version:  12
     \\/     M anipulation  |
\*---------------------------------------------------------------------------*/
FoamFile
{
    format      ascii;
    class       volVectorField;
    location    "320";
    object      U;
}
// * * * * * * * * * * * * * * * * * * * * * * * * * * * * * * * * * * * * * //

dimensions      [0 1 -1 0 0 0 0];

internalField   nonuniform List<vector> 
6750
(
(0.200065 -0.00312061 0)
(0.200334 -0.00958868 0)
(0.200601 -0.0155817 0)
(0.200832 -0.0211571 0)
(0.200689 -0.0263974 0)
(0.200037 -0.00347822 0)
(0.200271 -0.0101449 0)
(0.200458 -0.0160526 0)
(0.200516 -0.0213269 0)
(0.200374 -0.0260406 0)
(0.200026 -0.00363734 0)
(0.200122 -0.010357 0)
(0.200123 -0.0161215 0)
(0.19998 -0.0210923 0)
(0.19971 -0.0253526 0)
(0.20001 -0.00366808 0)
(0.199953 -0.0102924 0)
(0.199761 -0.0158487 0)
(0.199437 -0.0205373 0)
(0.199037 -0.0244796 0)
(0.199996 -0.00359785 0)
(0.199798 -0.0099988 0)
(0.199422 -0.0152925 0)
(0.198921 -0.0197078 0)
(0.198376 -0.0233929 0)
(0.199984 -0.00344433 0)
(0.199656 -0.00951143 0)
(0.199104 -0.0144868 0)
(0.198422 -0.018613 0)
(0.197713 -0.0220488 0)
(0.199974 -0.00322205 0)
(0.199524 -0.00885777 0)
(0.198799 -0.0134567 0)
(0.197931 -0.0172616 0)
(0.197044 -0.0204302 0)
(0.199965 -0.00294203 0)
(0.199398 -0.00806062 0)
(0.198505 -0.0122257 0)
(0.197451 -0.0156698 0)
(0.196378 -0.0185417 0)
(0.199956 -0.00261387 0)
(0.199281 -0.00714241 0)
(0.198228 -0.0108215 0)
(0.196995 -0.0138649 0)
(0.195739 -0.0164076 0)
(0.199949 -0.0022473 0)
(0.199175 -0.00612768 0)
(0.197976 -0.00927769 0)
(0.196579 -0.0118856 0)
(0.195152 -0.0140688 0)
(0.199943 -0.00185264 0)
(0.199084 -0.00504315 0)
(0.197758 -0.00763265 0)
(0.196219 -0.00977857 0)
(0.194641 -0.0115782 0)
(0.199938 -0.00144051 0)
(0.199011 -0.00391642 0)
(0.197583 -0.00592685 0)
(0.195927 -0.0075941 0)
(0.194226 -0.0089943 0)
(0.199935 -0.00102122 0)
(0.198957 -0.00277437 0)
(0.197453 -0.00419998 0)
(0.195712 -0.00538217 0)
(0.193918 -0.00637582 0)
(0.199931 -0.000603979 0)
(0.198926 -0.0016417 0)
(0.197371 -0.00248806 0)
(0.195574 -0.00318836 0)
(0.19372 -0.00377712 0)
(0.199921 -0.000200516 0)
(0.198921 -0.000537942 0)
(0.197334 -0.000819712 0)
(0.19551 -0.00105071 0)
(0.193626 -0.00124471 0)
(0.199921 0.000200326 0)
(0.198921 0.000537423 0)
(0.197334 0.000818929 0)
(0.19551 0.00104972 0)
(0.193626 0.00124355 0)
(0.199931 0.000603789 0)
(0.198926 0.00164119 0)
(0.197371 0.00248728 0)
(0.195574 0.00318737 0)
(0.19372 0.00377597 0)
(0.199935 0.00102103 0)
(0.198957 0.00277385 0)
(0.197453 0.0041992 0)
(0.195712 0.00538118 0)
(0.193918 0.00637467 0)
(0.199938 0.00144032 0)
(0.199011 0.0039159 0)
(0.197583 0.00592608 0)
(0.195927 0.00759312 0)
(0.194226 0.00899316 0)
(0.199943 0.00185245 0)
(0.199084 0.00504264 0)
(0.197758 0.00763188 0)
(0.196219 0.0097776 0)
(0.194641 0.0115771 0)
(0.199949 0.00224712 0)
(0.199175 0.00612718 0)
(0.197976 0.00927693 0)
(0.196579 0.0118847 0)
(0.195152 0.0140677 0)
(0.199956 0.00261369 0)
(0.199281 0.00714191 0)
(0.198227 0.0108207 0)
(0.196995 0.013864 0)
(0.195739 0.0164064 0)
(0.199965 0.00294185 0)
(0.199398 0.00806013 0)
(0.198505 0.012225 0)
(0.197451 0.0156688 0)
(0.196378 0.0185406 0)
(0.199974 0.00322187 0)
(0.199524 0.00885729 0)
(0.198799 0.013456 0)
(0.197931 0.0172607 0)
(0.197044 0.0204291 0)
(0.199984 0.00344416 0)
(0.199656 0.00951095 0)
(0.199104 0.0144861 0)
(0.198422 0.0186121 0)
(0.197713 0.0220477 0)
(0.199996 0.00359768 0)
(0.199798 0.00999834 0)
(0.199422 0.0152918 0)
(0.198921 0.0197069 0)
(0.198376 0.0233919 0)
(0.20001 0.00366792 0)
(0.199953 0.0102919 0)
(0.199761 0.015848 0)
(0.199437 0.0205364 0)
(0.199037 0.0244785 0)
(0.200026 0.00363718 0)
(0.200122 0.0103565 0)
(0.200123 0.0161208 0)
(0.19998 0.0210914 0)
(0.19971 0.0253516 0)
(0.200037 0.00347807 0)
(0.200271 0.0101445 0)
(0.200458 0.0160519 0)
(0.200516 0.0213261 0)
(0.200374 0.0260396 0)
(0.200065 0.00312047 0)
(0.200334 0.00958829 0)
(0.200601 0.0155811 0)
(0.200831 0.0211563 0)
(0.200689 0.0263964 0)
(0.19851 -0.0381715 0)
(0.196771 -0.0437668 0)
(0.19529 -0.0488918 0)
(0.194259 -0.0534929 2.81714e-22)
(0.193531 -0.0574586 0)
(0.193048 -0.0607278 0)
(0.192799 -0.0632343 -1.92855e-20)
(0.192771 -0.0648825 1.94557e-20)
(0.192944 -0.0655553 1.57955e-22)
(0.193246 -0.0651981 1.01146e-20)
(0.19365 -0.063683 1.92645e-23)
(0.194077 -0.0608569 -1.25412e-23)
(0.194448 -0.0567897 -5.20835e-21)
(0.194679 -0.0515508 -5.16884e-21)
(0.194696 -0.0452836 -1.20696e-20)
(0.194444 -0.0381983 1.20739e-20)
(0.193893 -0.0305543 -4.84576e-21)
(0.193043 -0.0226324 -4.49741e-21)
(0.191923 -0.014714 3.11568e-22)
(0.190583 -0.00705466 3.5366e-22)
(0.189075 0.000135307 8.6372e-21)
(0.187473 0.00674118 -1.27278e-22)
(0.185861 0.0126392 1.47864e-20)
(0.184299 0.0177726 -1.46556e-20)
(0.182838 0.0221307 0)
(0.181518 0.0257342 0)
(0.18037 0.0286244 -1.86166e-22)
(0.179419 0.0308538 0)
(0.178685 0.0324775 0)
(0.178159 0.033521 0)
(0.197622 -0.041533 0)
(0.196045 -0.0470382 0)
(0.194851 -0.0517302 0)
(0.194008 -0.0558205 -2.6626e-22)
(0.193399 -0.0592953 0)
(0.19301 -0.0621145 0)
(0.19284 -0.0642067 1.92026e-20)
(0.192875 -0.065475 -1.96642e-20)
(0.19309 -0.0658107 -1.48671e-22)
(0.193415 -0.0651816 0)
(0.193825 -0.0634227 0)
(0.194232 -0.060452 -9.56426e-21)
(0.194569 -0.0563326 9.59438e-21)
(0.194758 -0.0511355 0)
(0.194731 -0.0449976 -3.21934e-20)
(0.194442 -0.0381124 3.21937e-20)
(0.193865 -0.0307146 0)
(0.193004 -0.0230594 8.7082e-21)
(0.191885 -0.0153985 -8.75246e-21)
(0.190554 -0.00796271 0)
(0.189072 -0.000942326 0)
(0.1875 0.00554184 1.19405e-22)
(0.185904 0.0113804 -1.41953e-20)
(0.184349 0.0165156 1.43023e-20)
(0.182883 0.020929 0)
(0.181545 0.024632 0)
(0.180363 0.027657 1.7531e-22)
(0.179358 0.0300496 0)
(0.178556 0.0318678 0)
(0.177965 0.0331875 0)
(0.196785 -0.0441222 0)
(0.195527 -0.0491169 0)
(0.194514 -0.0533905 0)
(0.193763 -0.057147 1.95967e-20)
(0.193228 -0.0603396 -1.98142e-20)
(0.192911 -0.0629048 2.06866e-20)
(0.192808 -0.0647594 -2.08811e-20)
(0.1929 -0.0658057 3.21739e-22)
(0.193159 -0.0659435 0)
(0.193516 -0.0651475 0)
(0.19394 -0.0632314 -3.21178e-22)
(0.194342 -0.060166 0)
(0.194657 -0.0560024 0)
(0.194808 -0.0508142 -7.60387e-23)
(0.19473 -0.0447359 -5.29952e-20)
(0.19438 -0.0379541 5.29956e-20)
(0.193738 -0.030692 7.03688e-23)
(0.192812 -0.0231896 0)
(0.191633 -0.0156833 0)
(0.190249 -0.00838754 2.54938e-22)
(0.188719 -0.00147972 0)
(0.187107 0.00490433 0)
(0.185478 0.0106783 -2.36511e-22)
(0.183891 0.0157857 -1.37832e-20)
(0.182393 0.0202052 1.36549e-20)
(0.181021 0.023944 -1.26653e-20)
(0.1798 0.0270287 1.25076e-20)
(0.178748 0.0294974 0)
(0.177895 0.0314081 0)
(0.177319 0.032905 0)
(0.196046 -0.046449 0)
(0.195012 -0.0510241 -4.24277e-20)
(0.194103 -0.0549631 2.1393e-20)
(0.193421 -0.0584272 4.44624e-20)
(0.192956 -0.0613511 -4.50006e-20)
(0.192708 -0.0636632 2.23838e-20)
(0.192666 -0.0652782 0)
(0.192817 -0.0661005 7.02794e-22)
(0.193111 -0.0660474 0)
(0.193508 -0.0650741 0)
(0.193948 -0.0630056 1.13949e-20)
(0.19435 -0.0598482 -1.07687e-20)
(0.194646 -0.0556414 0)
(0.194757 -0.0504624 7.98307e-23)
(0.19462 -0.0444438 -7.33861e-20)
(0.194194 -0.0377653 7.33866e-20)
(0.193464 -0.0306389 -7.3878e-23)
(0.192443 -0.0232913 0)
(0.191165 -0.0159442 -8.51284e-21)
(0.189684 -0.00879796 7.95254e-21)
(0.188062 -0.00201945 2.43365e-22)
(0.186367 0.00426429 0)
(0.184663 0.00996785 -4.45693e-22)
(0.18301 0.0150388 0)
(0.181452 0.0194557 1.30246e-20)
(0.180027 0.0232231 -2.48197e-20)
(0.178756 0.0263632 2.34602e-20)
(0.177651 0.028907 1.05295e-20)
(0.176746 0.0309082 -2.174e-20)
(0.176204 0.0325822 0)
(0.195288 -0.0486651 0)
(0.194389 -0.0528759 4.76166e-20)
(0.193562 -0.0565028 -4.67914e-20)
(0.192952 -0.0596786 0)
(0.192557 -0.0623336 0)
(0.192372 -0.0643923 7.61881e-22)
(0.192389 -0.065768 0)
(0.192592 -0.0663661 -7.36374e-22)
(0.192925 -0.0661258 1.16266e-20)
(0.193356 -0.0649669 -1.17863e-20)
(0.19381 -0.06275 -1.16453e-20)
(0.19421 -0.059496 1.13436e-20)
(0.194482 -0.0552408 3.38595e-22)
(0.194546 -0.0500644 -1.63459e-22)
(0.194342 -0.0440978 -9.33863e-20)
(0.19383 -0.0375151 9.33867e-20)
(0.192999 -0.0305186 1.44688e-22)
(0.191864 -0.0233227 -2.76927e-22)
(0.190466 -0.0161353 8.50914e-21)
(0.188864 -0.00914398 -8.20187e-21)
(0.187125 -0.00250441 -8.06284e-21)
(0.185319 0.00366505 7.75212e-21)
(0.183513 0.00928298 4.67084e-22)
(0.181766 0.0143005 0)
(0.180126 0.0186971 -4.02882e-22)
(0.178627 0.022476 0)
(0.177292 0.025656 0)
(0.176127 0.0282623 -2.23158e-20)
(0.175162 0.0303428 2.13422e-20)
(0.174648 0.0321848 0)
(0.194434 -0.050772 4.90059e-20)
(0.19362 -0.0546347 -7.70381e-20)
(0.192868 -0.057962 2.53826e-20)
(0.192329 -0.0608608 0)
(0.191999 -0.0632569 2.56687e-20)
(0.191875 -0.0650708 -2.5137e-20)
(0.191947 -0.0662147 2.47262e-20)
(0.192199 -0.0665969 -2.56199e-20)
(0.192568 -0.066172 0)
(0.193027 -0.0648258 -7.74564e-22)
(0.193488 -0.0624642 1.18658e-20)
(0.19388 -0.0591099 -6.17369e-21)
(0.194122 -0.0547994 -9.30329e-22)
(0.194134 -0.0496155 -5.3956e-21)
(0.193855 -0.0436887 -1.13023e-19)
(0.19325 -0.0371884 1.1302e-19)
(0.192308 -0.0303093 -4.82636e-21)
(0.191051 -0.0232548 7.71553e-22)
(0.189523 -0.016221 -4.06836e-21)
(0.187788 -0.00938355 8.46877e-21)
(0.185917 -0.00288735 4.80771e-22)
(0.183984 0.00315741 0)
(0.182059 0.00867515 -1.41543e-20)
(0.180202 0.0136211 1.44343e-20)
(0.178461 0.0179767 -1.32962e-20)
(0.176873 0.0217451 1.27679e-20)
(0.175458 0.0249429 7.27855e-22)
(0.174222 0.0275907 1.12269e-20)
(0.173189 0.0297301 -3.27744e-20)
(0.172685 0.0317155 2.31337e-20)
(0.193439 -0.0527533 -2.56631e-20)
(0.192679 -0.0562817 2.89876e-20)
(0.191996 -0.0593276 2.90314e-20)
(0.191522 -0.0619649 -2.94378e-20)
(0.191254 -0.0641141 2.75178e-20)
(0.191186 -0.0656925 -2.95717e-20)
(0.19131 -0.0666128 -8.84592e-22)
(0.191607 -0.0667881 0)
(0.192008 -0.0661783 1.3078e-20)
(0.192487 -0.0646457 3.73201e-22)
(0.192951 -0.0621414 3.22586e-22)
(0.193327 -0.0586831 -1.2904e-20)
(0.193531 -0.0543104 -5.3937e-21)
(0.193483 -0.0491091 8.5333e-21)
(0.193125 -0.0432097 -1.34774e-19)
(0.19242 -0.0367784 1.29524e-19)
(0.191365 -0.0300031 7.21508e-21)
(0.189982 -0.0230785 -5.28848e-21)
(0.188321 -0.0161903 -8.50665e-21)
(0.186449 -0.00950304 -1.21656e-22)
(0.184441 -0.00315194 -1.63655e-22)
(0.182374 0.00276108 7.62555e-21)
(0.180321 0.00816675 0)
(0.178343 0.0130249 3.85342e-22)
(0.176491 0.0173198 -1.19404e-20)
(0.174801 0.0210556 1.26175e-20)
(0.173296 0.0242478 -1.1699e-20)
(0.171977 0.0269142 1.08057e-20)
(0.170866 0.0290905 1.06914e-20)
(0.170349 0.0311878 -1.2115e-20)
(0.192265 -0.0546046 0)
(0.191538 -0.0578174 2.72444e-20)
(0.190918 -0.0606016 -3.31806e-20)
(0.190505 -0.0629922 3.12582e-20)
(0.190294 -0.0649051 -2.98485e-20)
(0.19028 -0.066256 2.74022e-20)
(0.190453 -0.0669592 -2.77508e-20)
(0.190784 -0.0669361 -1.81031e-21)
(0.191217 -0.0661342 -8.86098e-22)
(0.191707 -0.0644187 -8.64256e-22)
(0.192166 -0.0617724 -8.33025e-22)
(0.192519 -0.0582061 4.0162e-22)
(0.192678 -0.0537646 -6.35916e-21)
(0.192565 -0.0485369 3.15604e-21)
(0.192122 -0.0426541 -1.47728e-19)
(0.191316 -0.0362797 1.53105e-19)
(0.190146 -0.0295964 2.24581e-21)
(0.188639 -0.022791 -4.18492e-21)
(0.186846 -0.0160401 2.65743e-22)
(0.184838 -0.00949873 1.02688e-21)
(0.182694 -0.0032927 4.7121e-22)
(0.180493 0.00248396 4.45708e-22)
(0.17831 0.00776839 8.46074e-22)
(0.176208 0.0125253 -1.39813e-20)
(0.174238 0.0167424 1.37346e-20)
(0.17244 0.0204253 -1.20225e-20)
(0.170834 0.0235899 1.1103e-20)
(0.169424 0.0262521 -9.70491e-21)
(0.168227 0.0284436 1.16164e-20)
(0.167675 0.0306195 0)
(0.190877 -0.0563273 0)
(0.19017 -0.0592443 1.97836e-21)
(0.189608 -0.0617848 -2.74235e-20)
(0.189252 -0.0639415 4.15388e-22)
(0.189094 -0.065627 3.19175e-20)
(0.18913 -0.0667571 1.9505e-21)
(0.18935 -0.0672464 1.95105e-21)
(0.189705 -0.0670317 -1.30517e-20)
(0.190165 -0.0660314 1.61278e-20)
(0.190659 -0.0641387 -4.95911e-24)
(0.191107 -0.0613474 -6.83218e-21)
(0.191428 -0.0576689 6.87322e-21)
(0.191535 -0.0531524 -2.69629e-21)
(0.191351 -0.0478905 3.10593e-21)
(0.190821 -0.0420151 -1.68545e-19)
(0.189914 -0.0356875 1.68545e-19)
(0.188631 -0.029086 2.41069e-21)
(0.187002 -0.0223905 -2.70021e-21)
(0.185082 -0.0157694 3.9484e-21)
(0.182944 -0.00936905 -5.2208e-21)
(0.180669 -0.00330682 -2.92543e-23)
(0.178339 0.00233085 7.04745e-21)
(0.176028 0.0074874 -7.89128e-21)
(0.173803 0.0121325 -7.84564e-22)
(0.171716 0.0162573 -8.04409e-22)
(0.169806 0.0198698 1.17411e-20)
(0.168095 0.0229867 -3.29879e-22)
(0.166587 0.0256234 -1.2423e-20)
(0.165298 0.0278092 0)
(0.164691 0.0300307 0)
(0.18924 -0.0579236 0)
(0.188546 -0.0605636 -3.53208e-20)
(0.188037 -0.0628757 4.09932e-22)
(0.187735 -0.0648092 5.22133e-22)
(0.187628 -0.0662748 6.53159e-20)
(0.187709 -0.0671894 -3.38797e-20)
(0.187968 -0.0674697 -2.03897e-21)
(0.188348 -0.0670628 0)
(0.188825 -0.0658614 1.44596e-20)
(0.189316 -0.0637935 -1.46636e-20)
(0.189746 -0.060855 7.14283e-21)
(0.190029 -0.0570606 -3.99111e-22)
(0.190078 -0.0524643 -6.82161e-21)
(0.18982 -0.047162 1.92847e-22)
(0.1892 -0.0412866 -1.8586e-19)
(0.188192 -0.0349978 1.85943e-19)
(0.186799 -0.0284697 -1.54353e-22)
(0.185054 -0.0218762 -4.51338e-21)
(0.183015 -0.0153783 2.93434e-22)
(0.180755 -0.00911427 5.18023e-21)
(0.178357 -0.00319374 -7.82375e-21)
(0.175905 0.0023039 7.23886e-21)
(0.173474 0.00732811 0)
(0.171131 0.0118534 8.20003e-22)
(0.168929 0.0158745 -1.18655e-20)
(0.166908 0.0194021 2.37506e-20)
(0.165092 0.022454 -3.06579e-22)
(0.163483 0.0250458 5.57049e-22)
(0.162099 0.0272067 -1.03936e-20)
(0.16142 0.0294425 0)
(0.187323 -0.0593956 -4.54963e-21)
(0.186638 -0.0617752 0)
(0.18618 -0.0638714 -2.22118e-21)
(0.185928 -0.0655904 3.3391e-20)
(0.185868 -0.0668419 -3.62955e-20)
(0.185993 -0.0675449 3.50941e-20)
(0.186284 -0.0676212 -3.53939e-20)
(0.186688 -0.0670163 -1.67165e-20)
(0.187173 -0.0656134 3.53508e-20)
(0.187655 -0.0633713 2.11783e-22)
(0.188059 -0.0602838 -1.48147e-20)
(0.188297 -0.0563705 7.05582e-21)
(0.188284 -0.0516906 -3.77854e-21)
(0.187948 -0.0463434 -5.07185e-21)
(0.187239 -0.0404627 -2.00961e-19)
(0.186131 -0.0342068 2.03738e-19)
(0.184633 -0.027746 -3.60444e-21)
(0.182778 -0.0212484 -2.06807e-21)
(0.180627 -0.0148682 4.48045e-21)
(0.178255 -0.00873628 -8.68805e-21)
(0.175746 -0.00295509 3.02854e-23)
(0.173182 0.00240259 1.29233e-20)
(0.17064 0.00729182 -6.6195e-21)
(0.168187 0.0116917 -1.19375e-20)
(0.165877 0.0156006 1.17722e-20)
(0.163751 0.0190316 -1.09462e-20)
(0.161831 0.022004 1.13356e-20)
(0.160122 0.0245346 -6.01055e-22)
(0.158642 0.0266533 0)
(0.157879 0.0288752 1.4327e-21)
(0.185093 -0.0607442 4.73165e-21)
(0.184416 -0.0628777 -4.01173e-20)
(0.184007 -0.0647674 3.84541e-20)
(0.183805 -0.0662784 2.36887e-21)
(0.18379 -0.0673198 2.35989e-21)
(0.183957 -0.0678126 0)
(0.184268 -0.0676896 -2.30976e-21)
(0.184695 -0.0668786 -1.99191e-20)
(0.185181 -0.0652766 3.39353e-20)
(0.185649 -0.0628596 -1.83312e-20)
(0.186021 -0.0596213 -1.00376e-21)
(0.186209 -0.0555871 7.32396e-21)
(0.18613 -0.0508214 -7.36331e-21)
(0.185715 -0.0454267 -2.04471e-22)
(0.184916 -0.0395377 -2.1809e-19)
(0.183712 -0.0333112 2.18002e-19)
(0.182114 -0.0269137 1.56588e-22)
(0.180158 -0.0205079 -4.47733e-21)
(0.177905 -0.0142414 4.45346e-21)
(0.175432 -0.00823824 5.03429e-22)
(0.172822 -0.0025941 -6.46669e-21)
(0.170158 0.00262429 1.37256e-20)
(0.167516 0.00737723 -5.62423e-21)
(0.164964 0.0116481 6.86758e-22)
(0.162555 0.0154386 0)
(0.16033 0.0187643 -6.84531e-22)
(0.158312 0.0216459 -6.54288e-22)
(0.156506 0.0241017 9.67695e-21)
(0.154933 0.0261635 -8.86593e-21)
(0.154079 0.0283473 -1.49e-21)
(0.182516 -0.0619688 0)
(0.181849 -0.0638671 -5.62048e-23)
(0.181489 -0.065557 4.02404e-20)
(0.181335 -0.0668642 -4.10202e-20)
(0.181365 -0.067698 -3.98105e-20)
(0.181567 -0.0679819 6.21626e-20)
(0.181902 -0.0676593 -1.73364e-20)
(0.182344 -0.0666364 -2.2372e-23)
(0.182826 -0.0648377 -2.31065e-21)
(0.183274 -0.0622446 0)
(0.183609 -0.0588546 -8.1004e-21)
(0.183742 -0.0546989 1.57534e-20)
(0.183594 -0.0498469 -7.63527e-21)
(0.183098 -0.0444042 2.13957e-22)
(0.182211 -0.0385062 -2.32736e-19)
(0.180915 -0.0323079 2.32824e-19)
(0.179223 -0.025972 -1.63852e-22)
(0.177174 -0.0196559 -4.4321e-21)
(0.174831 -0.0135009 8.41912e-21)
(0.172268 -0.00762417 -3.98214e-21)
(0.16957 -0.0021153 0)
(0.166819 0.00296471 7.51413e-22)
(0.164091 0.00758096 -7.65914e-23)
(0.161451 0.0117207 -6.02837e-21)
(0.158954 0.0153887 1.46713e-20)
(0.156639 0.0186029 -9.87221e-21)
(0.15453 0.0213852 -9.10753e-21)
(0.152633 0.0237555 9.51819e-21)
(0.15097 0.0257484 -6.51962e-23)
(0.150022 0.027874 0)
(0.179558 -0.0630661 0)
(0.178904 -0.0647371 -3.97823e-20)
(0.178595 -0.0662308 4.33309e-20)
(0.17849 -0.0673366 3.97465e-20)
(0.178562 -0.067964 -4.32766e-20)
(0.178797 -0.0680408 -2.31797e-20)
(0.179155 -0.0675129 8.25793e-22)
(0.179607 -0.0662751 2.30038e-20)
(0.18008 -0.0642808 4.8357e-21)
(0.180504 -0.0615113 0)
(0.180795 -0.0579698 0)
(0.180871 -0.0536936 -6.83962e-21)
(0.180652 -0.0487569 8.37641e-21)
(0.180076 -0.043268 0)
(0.179103 -0.0373626 -2.46175e-19)
(0.17772 -0.0311939 2.46172e-19)
(0.175942 -0.0249204 0)
(0.17381 -0.0186941 4.08418e-21)
(0.171386 -0.0126499 -4.8313e-21)
(0.168747 -0.0068988 0)
(0.165974 -0.00152416 0)
(0.16315 0.00341823 -1.48608e-21)
(0.160348 0.00789786 4.54046e-21)
(0.157634 0.0119055 -3.02873e-22)
(0.155059 0.0154487 -4.17633e-21)
(0.152665 0.0185471 -8.66019e-21)
(0.150475 0.0212242 8.97676e-21)
(0.148494 0.0235011 8.1008e-21)
(0.146748 0.0254157 -8.47008e-21)
(0.145707 0.0274671 0)
(0.176183 -0.0640306 0)
(0.175549 -0.0654761 0)
(0.175292 -0.0667766 0)
(0.175236 -0.0676819 -4.20379e-20)
(0.175353 -0.0681017 2.05656e-20)
(0.175614 -0.0679739 2.5135e-20)
(0.175997 -0.0672302 2.72522e-21)
(0.176453 -0.0657789 2.05403e-20)
(0.176914 -0.0635892 -1.14578e-21)
(0.177309 -0.0606438 -1.99136e-20)
(0.177555 -0.0569524 -1.13504e-21)
(0.177569 -0.0525584 -2.11841e-21)
(0.177278 -0.0475407 -4.70469e-21)
(0.176624 -0.0420098 3.5239e-21)
(0.175569 -0.0361014 -2.5809e-19)
(0.174104 -0.0299663 2.58098e-19)
(0.172248 -0.0237585 2.57042e-21)
(0.170042 -0.0176244 -1.83995e-21)
(0.16755 -0.0116925 9.93842e-22)
(0.164848 -0.00606753 4.16909e-22)
(0.162015 -0.000827111 -5.89083e-21)
(0.159131 0.00397795 6.40072e-22)
(0.15627 0.00832117 5.19447e-21)
(0.153494 0.0121964 -5.14496e-22)
(0.150856 0.0156135 3.57754e-21)
(0.148395 0.0185939 4.05843e-21)
(0.146133 0.0211619 -7.94163e-21)
(0.144077 0.0233401 0)
(0.142256 0.0251693 0)
(0.141124 0.0271347 0)
(0.17235 -0.0648498 -4.77237e-20)
(0.171744 -0.0660715 5.0289e-20)
(0.171542 -0.0671795 0)
(0.171539 -0.0678836 -2.36555e-20)
(0.171699 -0.0680941 2.69071e-20)
(0.17199 -0.0677585 2.2768e-20)
(0.172394 -0.066792 -2.90285e-20)
(0.172851 -0.0651293 0)
(0.173298 -0.0627443 -2.64534e-21)
(0.17366 -0.0596245 0)
(0.173856 -0.0557866 3.4035e-24)
(0.173808 -0.05128 9.10015e-24)
(0.173445 -0.0461874 1.00422e-21)
(0.172714 -0.0406215 4.54764e-22)
(0.171581 -0.0347172 -2.68624e-19)
(0.170042 -0.0286223 2.68609e-19)
(0.168116 -0.0224862 -3.16293e-22)
(0.165848 -0.016449 -5.50641e-22)
(0.163301 -0.010633 -4.23361e-23)
(0.160548 -0.00513645 -4.51407e-23)
(0.157669 -3.14871e-05 0)
(0.154741 0.0046358 6.68737e-22)
(0.151835 0.00884257 0)
(0.149012 0.0125854 -2.77392e-21)
(0.146323 0.0158762 3.77523e-21)
(0.143807 0.0187375 2.70973e-21)
(0.141484 0.0211943 -3.09659e-21)
(0.139364 0.0232704 0)
(0.137476 0.0250096 6.91307e-21)
(0.136259 0.0268806 -7.28944e-21)
(0.168018 -0.0655076 0)
(0.167448 -0.0665065 7.01873e-23)
(0.167306 -0.0674209 5.33574e-20)
(0.16736 -0.0679208 -5.10342e-20)
(0.167562 -0.0679206 3.12594e-21)
(0.167888 -0.0673688 -6.12431e-21)
(0.168309 -0.0661763 2.98193e-21)
(0.168766 -0.0643036 0)
(0.169195 -0.0617247 0)
(0.169521 -0.0584341 0)
(0.169666 -0.0544553 1.22731e-21)
(0.169555 -0.0498435 -7.4812e-21)
(0.169121 -0.0446853 1.20658e-20)
(0.168315 -0.0390942 -5.90478e-21)
(0.16711 -0.0332041 -2.75207e-19)
(0.165503 -0.0271592 2.78283e-19)
(0.163518 -0.0211035 -3.49693e-21)
(0.1612 -0.0151707 6.53632e-21)
(0.15861 -0.00947637 -4.40024e-21)
(0.155822 -0.00411253 -4.05126e-22)
(0.152911 0.000854254 -2.93597e-22)
(0.149954 0.00538228 0)
(0.147019 0.00945207 0)
(0.144163 0.0130626 -4.49588e-22)
(0.141438 0.0162271 6.8995e-22)
(0.138878 0.0189692 -2.53118e-22)
(0.136507 0.0213141 -4.41674e-21)
(0.134333 0.0232866 4.10973e-21)
(0.132388 0.024933 1.02729e-22)
(0.131093 0.0267044 0)
(0.163139 -0.0659811 -5.26266e-20)
(0.162614 -0.0667609 4.8792e-20)
(0.162539 -0.0674769 2.30782e-20)
(0.162654 -0.067767 -2.6851e-20)
(0.162901 -0.067555 -2.8794e-20)
(0.163263 -0.0667749 2.95235e-20)
(0.163701 -0.065359 2.44846e-20)
(0.164156 -0.0632768 -2.18973e-20)
(0.164565 -0.0605068 1.26073e-20)
(0.164853 -0.057051 -1.13216e-20)
(0.164945 -0.0529396 1.09531e-20)
(0.16477 -0.0482333 -5.36387e-21)
(0.164266 -0.0430216 -3.93367e-21)
(0.16339 -0.0374187 2.31676e-22)
(0.162118 -0.0315564 -2.82917e-19)
(0.160453 -0.0255745 2.82896e-19)
(0.15842 -0.019611 -1.45977e-22)
(0.156063 -0.0137929 -2.10509e-21)
(0.153445 -0.00822863 -1.21765e-21)
(0.150636 -0.00300387 3.03588e-21)
(0.147711 0.00182023 -1.71023e-21)
(0.14474 0.00620621 1.79465e-21)
(0.14179 0.0101376 -2.91121e-21)
(0.138918 0.0136154 2.57005e-21)
(0.13617 0.016654 1.48934e-21)
(0.133581 0.0192772 -1.48762e-21)
(0.131174 0.0215106 -1.32735e-21)
(0.128956 0.0233794 1.50569e-21)
(0.126964 0.0249319 4.57179e-21)
(0.125598 0.026601 -4.37408e-21)
(0.15766 -0.0662432 -3.45892e-21)
(0.157189 -0.0668077 -5.48045e-20)
(0.157189 -0.067317 6.02866e-20)
(0.15737 -0.0673922 0)
(0.157669 -0.0669604 -3.46643e-21)
(0.158068 -0.0659461 0)
(0.158521 -0.0643084 -3.31616e-21)
(0.158974 -0.062019 2.45295e-20)
(0.15936 -0.0590631 -2.64358e-20)
(0.159608 -0.0554506 1.4156e-21)
(0.159646 -0.0512182 -2.62016e-21)
(0.159407 -0.0464315 -1.18943e-21)
(0.158836 -0.0411825 -5.41972e-22)
(0.157894 -0.035585 -2.40473e-22)
(0.156563 -0.0297678 -2.85949e-19)
(0.154849 -0.0238657 2.8594e-19)
(0.152779 -0.0180099 1.5152e-22)
(0.150398 -0.0123199 2.50654e-22)
(0.147767 -0.00689701 -3.49213e-22)
(0.144954 -0.00182025 0)
(0.14203 0.0028546 -1.89898e-22)
(0.139063 0.00709412 -2.09827e-21)
(0.136115 0.0108846 2.3946e-21)
(0.133241 0.0142285 8.96912e-23)
(0.130485 0.0171412 0)
(0.127881 0.0196464 -2.07463e-24)
(0.12545 0.0217692 0)
(0.123201 0.023535 7.90844e-22)
(0.12117 0.0249938 -7.23888e-22)
(0.119744 0.0265602 1.74921e-22)
(0.151517 -0.0662609 -5.44656e-20)
(0.151113 -0.0666064 5.72201e-20)
(0.151197 -0.0669008 9.66622e-23)
(0.151447 -0.0667577 3.22103e-20)
(0.151806 -0.0660925 -5.41406e-20)
(0.152242 -0.0648452 3.25971e-20)
(0.152712 -0.0629875 3.41357e-21)
(0.15316 -0.0604952 3.81594e-23)
(0.153522 -0.0573617 0)
(0.153728 -0.0536044 -1.46189e-21)
(0.153711 -0.0492667 -7.53678e-21)
(0.15341 -0.0444182 1.15836e-20)
(0.152775 -0.0391524 5.39179e-22)
(0.151773 -0.0335821 -1.53109e-21)
(0.150391 -0.027832 -2.83842e-19)
(0.148639 -0.0220308 2.86854e-19)
(0.146545 -0.0163021 -1.36255e-21)
(0.144156 -0.0107576 -2.01837e-22)
(0.141528 -0.00549067 2.65282e-21)
(0.138728 -0.000573753 -2.26536e-21)
(0.135823 0.00394278 1.96107e-22)
(0.132877 0.00802938 0)
(0.129948 0.0116748 1.68402e-22)
(0.127089 0.0148828 -9.23251e-23)
(0.124341 0.017669 -3.40189e-22)
(0.121737 0.0200567 1.19321e-21)
(0.119295 0.0220701 -5.27044e-22)
(0.117025 0.0237346 1.57795e-22)
(0.114968 0.025101 2.47138e-22)
(0.113489 0.0265657 -4.29241e-22)
(0.144635 -0.0659862 0)
(0.144314 -0.066107 0)
(0.14449 -0.066178 -3.38593e-20)
(0.144819 -0.0658087 2.73639e-20)
(0.145241 -0.0649033 0)
(0.145716 -0.0634253 -3.66667e-21)
(0.146203 -0.0613508 -3.61549e-21)
(0.146646 -0.0586631 -3.40913e-21)
(0.146981 -0.0553641 0)
(0.147144 -0.0514788 0)
(0.147072 -0.0470565 -1.38689e-21)
(0.146709 -0.0421701 5.29266e-21)
(0.146013 -0.0369139 -5.81714e-21)
(0.144958 -0.031398 -2.41532e-22)
(0.143535 -0.0257424 -2.81445e-19)
(0.141758 -0.0200684 2.8151e-19)
(0.139655 -0.0144912 1.35266e-22)
(0.137272 -0.00911385 -9.3371e-22)
(0.134666 -0.00402159 1.30368e-21)
(0.131899 0.000720079 0)
(0.129032 0.00506616 0)
(0.126126 0.00899084 0)
(0.123236 0.0124851 0)
(0.12041 0.0155535 -2.52643e-22)
(0.117686 0.0182116 -1.27622e-22)
(0.115096 0.0204817 0)
(0.112657 0.022387 -2.52179e-21)
(0.110381 0.0239521 2.05027e-21)
(0.108307 0.0252281 0)
(0.106785 0.0265932 0)
(0.136923 -0.0653547 -3.9886e-21)
(0.136702 -0.065243 0)
(0.136981 -0.0650864 0)
(0.137401 -0.0644765 0)
(0.137889 -0.0633314 0)
(0.138405 -0.0616255 0)
(0.138907 -0.059341 3.69257e-21)
(0.139342 -0.05647 1.79108e-21)
(0.139648 -0.0530233 -1.27823e-20)
(0.139765 -0.0490329 2.80786e-21)
(0.139637 -0.0445533 2.40103e-20)
(0.139215 -0.03966 -1.61264e-20)
(0.138463 -0.0344466 7.02196e-22)
(0.137363 -0.0290197 4.0974e-21)
(0.13591 -0.0234926 -2.7243e-19)
(0.13412 -0.0179784 2.72387e-19)
(0.132026 -0.0125831 1.57014e-21)
(0.12967 -0.00740003 -5.56738e-22)
(0.127106 -0.00250605 -2.18313e-21)
(0.124391 0.00204059 1.4484e-21)
(0.121584 0.00620027 -6.05211e-22)
(0.11874 0.00995077 3.07554e-22)
(0.11591 0.0132849 1.89766e-22)
(0.113136 0.016208 2.58027e-22)
(0.110455 0.0187348 0)
(0.107897 0.0208864 0)
(0.105477 0.0226843 0)
(0.103206 0.0241518 0)
(0.101127 0.0253397 0)
(0.0995731 0.0266082 -3.5382e-22)
(0.128269 -0.0642795 8.21612e-21)
(0.128169 -0.0639292 -3.27921e-20)
(0.128564 -0.0635324 3.40709e-20)
(0.129081 -0.0626761 0)
(0.129637 -0.0612947 -3.20434e-20)
(0.130194 -0.0593671 3.70324e-20)
(0.13071 -0.0568847 -3.17145e-20)
(0.131133 -0.0538494 2.68322e-20)
(0.131406 -0.0502801 0)
(0.131475 -0.0462159 1.0408e-20)
(0.13129 -0.0417154 -2.88293e-21)
(0.130811 -0.0368553 -1.56148e-20)
(0.13001 -0.0317271 5.3154e-21)
(0.128874 -0.0264324 1.64859e-21)
(0.127404 -0.0210765 -2.59208e-19)
(0.12562 -0.015763 2.56469e-19)
(0.123553 -0.0105873 9.54304e-22)
(0.121245 -0.00563272 5.65957e-22)
(0.118747 -0.000966863 -1.10562e-21)
(0.11611 0.00335935 9.67095e-22)
(0.113388 0.00731175 -5.09085e-22)
(0.11063 0.0108715 -2.49175e-22)
(0.107882 0.0140332 -4.88791e-21)
(0.105183 0.016802 3.91495e-21)
(0.102567 0.019192 -4.65661e-21)
(0.100059 0.0212224 5.28881e-21)
(0.0976746 0.0229124 0)
(0.0954254 0.0242837 -5.59614e-21)
(0.093354 0.0253856 5.41808e-21)
(0.0917781 0.0265606 9.54613e-22)
(0.118532 -0.0626373 2.61988e-20)
(0.118574 -0.0620409 -3.41064e-20)
(0.119099 -0.0613925 -3.00793e-20)
(0.119716 -0.0602929 3.57451e-20)
(0.120342 -0.058681 3.75766e-20)
(0.120937 -0.0565446 -7.46414e-20)
(0.121462 -0.0538852 5.23306e-20)
(0.121867 -0.0507142 -1.38575e-20)
(0.122102 -0.0470588 0)
(0.12212 -0.0429637 -1.21386e-20)
(0.121878 -0.0384907 1.09176e-20)
(0.121345 -0.0337162 -6.26216e-22)
(0.120502 -0.028728 -1.948e-21)
(0.119342 -0.0236205 2.74281e-21)
(0.117872 -0.0184898 -2.36276e-19)
(0.116113 -0.0134283 2.35077e-19)
(0.114097 -0.00851994 8.66326e-22)
(0.111864 -0.00383685 -4.60504e-22)
(0.109458 0.000562838 -3.06525e-23)
(0.106928 0.0046359 -1.67957e-21)
(0.104319 0.00835358 1.69614e-21)
(0.101676 0.0117003 6.40851e-22)
(0.0990389 0.014672 3.58719e-21)
(0.0964416 0.0172736 -9.5224e-21)
(0.0939141 0.0195178 1.27777e-20)
(0.0914798 0.0214214 -6.29729e-21)
(0.0891519 0.023001 -8.0268e-21)
(0.0869422 0.024276 7.76992e-21)
(0.0848939 0.0252936 6.49339e-21)
(0.0833086 0.0263775 -8.09832e-21)
(0.107529 -0.0602468 4.0939e-20)
(0.107735 -0.0593941 4.81082e-21)
(0.108394 -0.0584976 -5.73007e-21)
(0.109112 -0.0571614 -3.7202e-20)
(0.109804 -0.055334 -4.3535e-21)
(0.110431 -0.0530131 6.40333e-21)
(0.110955 -0.0502109 5.73801e-23)
(0.111334 -0.0469481 0)
(0.111524 -0.043259 0)
(0.111486 -0.0391931 -1.2181e-20)
(0.111188 -0.0348134 1.38658e-20)
(0.110607 -0.030194 6.30681e-22)
(0.109732 -0.0254171 0)
(0.108563 -0.0205681 5.20713e-22)
(0.107114 -0.0157317 -2.06045e-19)
(0.105406 -0.0109878 2.04974e-19)
(0.10347 -0.00640754 3.44855e-22)
(0.101343 -0.00205117 0)
(0.0990647 0.00203331 3.08709e-23)
(0.0966759 0.00581051 -2.35298e-21)
(0.0942162 0.00925707 2.19562e-21)
(0.091723 0.0123605 -3.90274e-22)
(0.0892298 0.0151176 0)
(0.0867663 0.0175328 1.68781e-22)
(0.0843583 0.0196168 1.79083e-21)
(0.0820258 0.0213836 -1.12043e-21)
(0.0797803 0.0228468 1.05226e-20)
(0.0776334 0.024023 -1.33508e-23)
(0.0756283 0.024956 4.35855e-22)
(0.0740492 0.0259494 -8.16489e-21)
(0.0950085 -0.0568266 -3.82579e-20)
(0.0953929 -0.0557265 3.27373e-20)
(0.0961852 -0.0545912 0)
(0.0969966 -0.0530379 -3.40845e-20)
(0.0977422 -0.0510266 4.00947e-20)
(0.0983856 -0.0485655 -1.90926e-20)
(0.0988957 -0.0456769 3.13885e-20)
(0.0992361 -0.0423899 -1.44728e-20)
(0.0993718 -0.0387446 0)
(0.0992738 -0.0347932 0)
(0.0989205 -0.0305978 5.93304e-21)
(0.0982997 -0.0262281 -5.9052e-21)
(0.0974087 -0.0217577 0)
(0.0962549 -0.017261 1.9631e-22)
(0.0948543 -0.0128095 -1.6496e-19)
(0.0932306 -0.00846857 1.64925e-19)
(0.0914126 -0.00429545 -3.6762e-23)
(0.0894326 -0.000337764 0)
(0.0873242 0.00336707 1.20941e-21)
(0.0851208 0.00679166 -1.11136e-21)
(0.0828545 0.00991796 0)
(0.0805549 0.0127362 0)
(0.0782491 0.0152438 6.76468e-21)
(0.0759611 0.0174442 -1.27551e-20)
(0.0737121 0.0193455 5.41162e-21)
(0.0715188 0.0209586 -1.23855e-20)
(0.0693907 0.0222934 1.38147e-20)
(0.0673384 0.0233632 0)
(0.0654044 0.0242075 -1.29725e-20)
(0.0638539 0.0251073 1.02506e-20)
(0.0806107 -0.0519295 -3.7527e-20)
(0.0811715 -0.0506103 3.65021e-20)
(0.0820794 -0.0492682 -3.86917e-20)
(0.0829605 -0.0475456 6.20758e-23)
(0.0837343 -0.0454146 4.21121e-22)
(0.0843698 -0.0428935 5.70014e-20)
(0.0848434 -0.040013 -1.77914e-20)
(0.085128 -0.0368088 -1.9514e-21)
(0.0851992 -0.0333247 1.34451e-20)
(0.0850393 -0.0296129 -2.55742e-20)
(0.084638 -0.0257317 1.20364e-20)
(0.0839934 -0.0217433 4.63729e-21)
(0.0831114 -0.0177102 -5.64327e-21)
(0.0820053 -0.013693 2.06845e-21)
(0.0806942 -0.00974762 -1.13061e-19)
(0.0792014 -0.00592364 1.12417e-19)
(0.0775525 -0.0022632 -2.94101e-22)
(0.0757742 0.00119943 1.7866e-21)
(0.0738927 0.0044377 -1.25064e-21)
(0.0719331 0.00743222 -5.28176e-21)
(0.0699189 0.01017 1.16004e-20)