/*--------------------------------*- C++ -*----------------------------------*\
  =========                 |
  \\      /  F ield         | OpenFOAM: The Open Source CFD Toolbox
   \\    /   O peration     | Website:  https://openfoam.org
    \\  /    A nd           | Version:  12
     \\/     M anipulation  |
\*---------------------------------------------------------------------------*/
FoamFile
{
    format      ascii;
    class       volVectorField;
    location    "320";
    object      UMean;
}
// * * * * * * * * * * * * * * * * * * * * * * * * * * * * * * * * * * * * * //

dimensions      [0 1 -1 0 0 0 0];

internalField   nonuniform List<vector> 
6750
(
(0.200071 -0.00308544 0)
(0.200363 -0.00939279 0)
(0.200653 -0.0151724 0)
(0.200903 -0.0205054 0)
(0.200795 -0.0254905 0)
(0.200037 -0.00346864 0)
(0.200283 -0.0100005 0)
(0.200489 -0.0157151 0)
(0.200573 -0.0207697 0)
(0.200464 -0.0252561 0)
(0.200026 -0.00363326 0)
(0.200129 -0.0102328 0)
(0.200149 -0.0158224 0)
(0.200032 -0.0205981 0)
(0.199796 -0.0246642 0)
(0.20001 -0.00366749 0)
(0.19996 -0.0101862 0)
(0.199785 -0.0155873 0)
(0.199487 -0.0201038 0)
(0.199118 -0.0238764 0)
(0.199995 -0.00360036 0)
(0.199804 -0.0099096 0)
(0.199445 -0.0150662 0)
(0.198968 -0.0193295 0)
(0.198453 -0.0228649 0)
(0.199983 -0.00344928 0)
(0.199661 -0.0094373 0)
(0.199125 -0.0142922 0)
(0.198466 -0.0182845 0)
(0.197785 -0.021588 0)
(0.199973 -0.00322861 0)
(0.199527 -0.00879675 0)
(0.198817 -0.0132907 0)
(0.197972 -0.0169784 0)
(0.197112 -0.0200311 0)
(0.199963 -0.00294944 0)
(0.199401 -0.00801086 0)
(0.198521 -0.0120855 0)
(0.197489 -0.0154281 0)
(0.196443 -0.0181997 0)
(0.199955 -0.00262143 0)
(0.199282 -0.00710232 0)
(0.198242 -0.0107047 0)
(0.19703 -0.013662 0)
(0.195801 -0.0161193 0)
(0.199947 -0.00225443 0)
(0.199175 -0.00609592 0)
(0.197988 -0.0091825 0)
(0.196612 -0.011719 0)
(0.195212 -0.0138314 0)
(0.199941 -0.0018589 0)
(0.199083 -0.00501863 0)
(0.19777 -0.00755737 0)
(0.196251 -0.00964601 0)
(0.1947 -0.0113889 0)
(0.199936 -0.00144559 0)
(0.199009 -0.00389827 0)
(0.197593 -0.00587007 0)
(0.195958 -0.00749369 0)
(0.194283 -0.00885066 0)
(0.199933 -0.00102493 0)
(0.198955 -0.00276191 0)
(0.197462 -0.00416049 0)
(0.195741 -0.00531215 0)
(0.193974 -0.00627556 0)
(0.199929 -0.000606205 0)
(0.198924 -0.00163441 0)
(0.197379 -0.00246481 0)
(0.195602 -0.00314713 0)
(0.193775 -0.0037181 0)
(0.199919 -0.000201181 0)
(0.198918 -0.000535449 0)
(0.197343 -0.000811825 0)
(0.195538 -0.00103682 0)
(0.193682 -0.0012249 0)
(0.199919 0.000201129 0)
(0.198918 0.000535427 0)
(0.197343 0.000811875 0)
(0.195538 0.00103696 0)
(0.193681 0.00122512 0)
(0.199929 0.000606153 0)
(0.198924 0.00163439 0)
(0.197379 0.00246486 0)
(0.195602 0.00314727 0)
(0.193775 0.00371832 0)
(0.199933 0.00102487 0)
(0.198955 0.00276189 0)
(0.197462 0.00416054 0)
(0.195741 0.00531229 0)
(0.193974 0.00627578 0)
(0.199936 0.00144554 0)
(0.199009 0.00389825 0)
(0.197593 0.00587012 0)
(0.195958 0.00749383 0)
(0.194283 0.00885089 0)
(0.199941 0.00185885 0)
(0.199083 0.00501861 0)
(0.19777 0.00755743 0)
(0.196251 0.00964616 0)
(0.1947 0.0113892 0)
(0.199947 0.00225439 0)
(0.199175 0.00609591 0)
(0.197988 0.00918256 0)
(0.196612 0.0117191 0)
(0.195212 0.0138316 0)
(0.199955 0.00262139 0)
(0.199282 0.0071023 0)
(0.198242 0.0107048 0)
(0.19703 0.0136622 0)
(0.195801 0.0161196 0)
(0.199963 0.0029494 0)
(0.1994 0.00801085 0)
(0.198521 0.0120855 0)
(0.197489 0.0154283 0)
(0.196443 0.0182 0)
(0.199973 0.00322858 0)
(0.199527 0.00879675 0)
(0.198817 0.0132908 0)
(0.197972 0.0169785 0)
(0.197112 0.0200313 0)
(0.199983 0.00344925 0)
(0.199661 0.00943731 0)
(0.199125 0.0142923 0)
(0.198466 0.0182846 0)
(0.197785 0.0215883 0)
(0.199995 0.00360035 0)
(0.199804 0.00990962 0)
(0.199445 0.0150662 0)
(0.198968 0.0193297 0)
(0.198453 0.0228651 0)
(0.20001 0.00366749 0)
(0.19996 0.0101863 0)
(0.199785 0.0155874 0)
(0.199487 0.020104 0)
(0.199118 0.0238766 0)
(0.200026 0.00363327 0)
(0.200129 0.0102328 0)
(0.200149 0.0158225 0)
(0.200032 0.0205982 0)
(0.199796 0.0246644 0)
(0.200037 0.00346865 0)
(0.200283 0.0100005 0)
(0.200489 0.0157151 0)
(0.200573 0.0207698 0)
(0.200464 0.0252563 0)
(0.200071 0.00308545 0)
(0.200363 0.00939283 0)
(0.200653 0.0151725 0)
(0.200903 0.0205055 0)
(0.200795 0.0254907 0)
(0.198828 -0.036611 0)
(0.197254 -0.0418323 0)
(0.195935 -0.0465855 0)
(0.19505 -0.0508259 1.20673e-22)
(0.194458 -0.0544515 0)
(0.1941 -0.0574072 0)
(0.193967 -0.059632 -8.52338e-21)
(0.194045 -0.0610358 8.60758e-21)
(0.19431 -0.061509 7.3011e-23)
(0.194699 -0.0609948 4.63678e-21)
(0.19518 -0.0593585 4.14947e-23)
(0.195676 -0.0564764 1.96899e-23)
(0.196109 -0.0524046 -2.42123e-21)
(0.196396 -0.047211 -2.41857e-21)
(0.196464 -0.0410367 -5.64708e-21)
(0.196259 -0.0340888 5.64911e-21)
(0.19575 -0.0266234 -2.23951e-21)
(0.194941 -0.0189181 -2.03078e-21)
(0.19386 -0.0112504 2.09341e-22)
(0.192558 -0.00387095 2.45022e-22)
(0.19109 0.00301616 3.8029e-21)
(0.189533 0.00929609 -5.43657e-23)
(0.187971 0.0148515 5.92107e-21)
(0.186463 0.0196321 -5.86871e-21)
(0.185061 0.0236325 0)
(0.183806 0.0268782 0)
(0.182728 0.029414 -6.28141e-23)
(0.181852 0.0312961 0)
(0.181203 0.0325876 0)
(0.180762 0.0333226 0)
(0.198018 -0.0397954 0)
(0.196601 -0.0449218 0)
(0.195555 -0.0492613 0)
(0.194848 -0.0530184 -1.14087e-22)
(0.194367 -0.0561824 0)
(0.194098 -0.058717 0)
(0.19404 -0.0605554 9.09565e-21)
(0.194178 -0.0616052 -9.32922e-21)
(0.194485 -0.0617658 -6.87347e-23)
(0.194899 -0.0609944 0)
(0.195389 -0.0591329 0)
(0.19587 -0.0561168 -4.44279e-21)
(0.196276 -0.0519972 4.45678e-21)
(0.196528 -0.046844 0)
(0.196559 -0.0407921 -1.48226e-20)
(0.196322 -0.0340325 1.48237e-20)
(0.195793 -0.0267974 0)
(0.194974 -0.0193392 3.95841e-21)
(0.193896 -0.0119068 -3.97969e-21)
(0.192604 -0.00472728 0)
(0.191161 0.00201366 0)
(0.189629 0.0081956 5.10263e-23)
(0.188076 0.0137147 -5.8561e-21)
(0.186569 0.0185185 5.89794e-21)
(0.185156 0.0225935 0)
(0.183875 0.0259559 0)
(0.182754 0.0286413 5.91809e-23)
(0.181815 0.0306977 0)
(0.181086 0.0321855 0)
(0.180573 0.0331713 0)
(0.197252 -0.0422528 0)
(0.196136 -0.0468926 0)
(0.195261 -0.0508367 0)
(0.194641 -0.054281 9.74415e-21)
(0.194231 -0.0571822 -9.85185e-21)
(0.194033 -0.0594812 1.02918e-20)
(0.194042 -0.0610999 -1.03886e-20)
(0.194241 -0.0619443 1.55888e-22)
(0.194597 -0.0619222 0)
(0.195051 -0.0609923 0)
(0.195565 -0.0589862 -1.55456e-22)
(0.196053 -0.0558811 0)
(0.196449 -0.0517189 0)
(0.196675 -0.0465724 -3.49245e-23)
(0.196666 -0.0405742 -2.38838e-20)
(0.19638 -0.0339086 2.38846e-20)
(0.195795 -0.0267968 3.04139e-23)
(0.194919 -0.0194767 0)
(0.193785 -0.0121825 0)
(0.19244 -0.0051261 1.02848e-22)
(0.190948 0.00151799 0)
(0.189374 0.00761711 0)
(0.187784 0.0130885 -9.55094e-23)
(0.186238 0.01788 -5.05531e-21)
(0.184785 0.0219751 5.00825e-21)
(0.183463 0.0253855 -4.18517e-21)
(0.182295 0.0281418 4.12749e-21)
(0.181299 0.0302856 0)
(0.180508 0.0318773 0)
(0.179987 0.0330427 0)
(0.196571 -0.0444574 0)
(0.195666 -0.0486976 -2.18896e-20)
(0.19489 -0.0523267 1.09921e-20)
(0.194338 -0.0554981 2.30392e-20)
(0.193999 -0.0581501 -2.33214e-20)
(0.193871 -0.0602156 1.15966e-20)
(0.193946 -0.0616135 0)
(0.194209 -0.0622516 3.63288e-22)
(0.194613 -0.0620527 0)
(0.195117 -0.0609568 0)
(0.195661 -0.058811 5.52439e-21)
(0.196164 -0.0556192 -5.21826e-21)
(0.196557 -0.0514157 0)
(0.19676 -0.0462761 3.66661e-23)
(0.196708 -0.0403314 -3.23729e-20)
(0.196359 -0.0337594 3.23757e-20)
(0.195699 -0.0267707 -3.19321e-23)
(0.194737 -0.0195904 0)
(0.19351 -0.0124386 -3.34693e-21)
(0.192073 -0.00551412 3.12954e-21)
(0.19049 0.0010186 8.68276e-23)
(0.188831 0.00703538 0)
(0.187162 0.0124536 -1.46489e-22)
(0.185544 0.0172248 0)
(0.184024 0.0213319 4.06184e-21)
(0.182639 0.0247839 -7.52709e-21)
(0.181412 0.0276068 6.68963e-21)
(0.180357 0.0298357 2.51301e-21)
(0.179504 0.0315276 -5.60758e-21)
(0.178994 0.0328713 0)
(0.195868 -0.0465547 0)
(0.195091 -0.0504504 2.56405e-20)
(0.194395 -0.0537879 -2.5181e-20)
(0.193915 -0.0566922 0)
(0.193648 -0.0590966 0)
(0.193589 -0.0609297 4.13767e-22)
(0.19373 -0.0621085 0)
(0.194056 -0.0625418 -3.80547e-22)
(0.194511 -0.0621689 5.94362e-21)
(0.195064 -0.0609012 -6.04317e-21)
(0.195638 -0.058619 -5.72374e-21)
(0.196158 -0.0553362 5.5742e-21)
(0.196546 -0.0510856 1.59656e-22)
(0.196721 -0.0459457 -7.4255e-23)
(0.196619 -0.040046 -4.02891e-20)
(0.1962 -0.033559 4.02932e-20)
(0.195451 -0.0266861 5.73691e-23)
(0.194388 -0.0196409 -1.04274e-22)
(0.193049 -0.0126305 3.09039e-21)
(0.191496 -0.00584136 -2.97673e-21)
(0.189798 0.000572284 -2.67662e-21)
(0.188027 0.0064943 2.56718e-21)
(0.186254 0.0118458 1.5352e-22)
(0.184538 0.0165813 0)
(0.182928 0.0206845 -1.03114e-22)
(0.181463 0.0241625 0)
(0.180163 0.027038 0)
(0.179038 0.0293406 -4.99421e-21)
(0.178117 0.0311217 4.7927e-21)
(0.177615 0.0326337 0)
(0.195072 -0.0485493 2.74909e-20)
(0.194377 -0.0521191 -4.31504e-20)
(0.193756 -0.0551796 1.41723e-20)
(0.19335 -0.0578296 0)
(0.193152 -0.0599977 1.41891e-20)
(0.193161 -0.061608 -1.38787e-20)
(0.193367 -0.0625761 1.33932e-20)
(0.193754 -0.0628132 -1.38507e-20)
(0.194262 -0.0622688 0)
(0.194859 -0.0608291 -4.03946e-22)
(0.19546 -0.0584129 5.89803e-21)
(0.195991 -0.0550351 -3.16215e-21)
(0.196369 -0.05073 -5.42222e-22)
(0.19651 -0.0455789 -2.49671e-21)
(0.196353 -0.0397108 -4.76063e-20)
(0.195858 -0.0332943 4.7604e-20)
(0.195013 -0.0265233 -1.81975e-21)
(0.193839 -0.0196013 3.83795e-22)
(0.19238 -0.0127246 -1.25436e-21)
(0.1907 -0.00606824 2.81273e-21)
(0.188874 0.000223507 1.34913e-22)
(0.186977 0.006042 0)
(0.185082 0.0113138 -3.63277e-21)
(0.183252 0.0159971 3.69067e-21)
(0.181537 0.020077 -2.97468e-21)
(0.179975 0.0235603 2.88241e-21)
(0.178589 0.0264677 1.29097e-22)
(0.177385 0.0288244 2.05856e-21)
(0.176388 0.030676 -6.3829e-21)
(0.175877 0.0323336 4.64345e-21)
(0.194141 -0.0504291 -1.48773e-20)
(0.193501 -0.0536897 1.68023e-20)
(0.192952 -0.0564925 1.67039e-20)
(0.192616 -0.0589049 -1.69339e-20)
(0.192487 -0.0608497 1.56203e-20)
(0.192562 -0.0622474 -1.677e-20)
(0.192832 -0.0630133 -5.10247e-22)
(0.193277 -0.0630629 0)
(0.193834 -0.0623469 6.94742e-21)
(0.194469 -0.0607368 4.74787e-24)
(0.195092 -0.0581876 -4.48699e-23)
(0.195628 -0.0547105 -6.47114e-21)
(0.195987 -0.0503431 -2.47992e-21)
(0.196089 -0.0451699 3.86345e-21)
(0.195871 -0.03932 -5.53678e-20)
(0.195294 -0.0329591 5.32075e-20)
(0.19435 -0.0262753 2.62833e-21)
(0.193063 -0.0194639 -1.86642e-21)
(0.19148 -0.0127113 -2.54202e-21)
(0.18967 -0.00618265 1.91003e-22)
(0.18771 -1.30789e-05 1.37158e-22)
(0.185682 0.00569634 1.89571e-21)
(0.183658 0.010878 0)
(0.181705 0.0154943 4.12598e-23)
(0.179875 0.0195327 -2.04598e-21)
(0.178206 0.0230008 2.19094e-21)
(0.176722 0.0259182 -1.7222e-21)
(0.175428 0.0283073 1.57828e-21)
(0.174346 0.0302086 1.80217e-21)
(0.173809 0.0319833 -2.02927e-21)
(0.193041 -0.0521939 0)
(0.192439 -0.0551659 1.61476e-20)
(0.191958 -0.0577319 -1.96478e-20)
(0.191689 -0.0599223 1.83199e-20)
(0.191626 -0.0616551 -1.75022e-20)
(0.191766 -0.0628488 1.57189e-20)
(0.192099 -0.0634188 -1.59319e-20)
(0.192592 -0.0632885 -1.02145e-21)
(0.193198 -0.0623955 -4.88851e-22)
(0.193864 -0.0606177 -4.63778e-22)
(0.194502 -0.0579348 -4.27431e-22)
(0.195034 -0.0543534 1.98287e-22)
(0.195368 -0.0499162 -2.91657e-21)
(0.195424 -0.0447107 1.52565e-21)
(0.195139 -0.038867 -5.87905e-20)
(0.194477 -0.0325486 6.09333e-20)
(0.193433 -0.0259389 6.57218e-22)
(0.192033 -0.0192261 -1.39659e-21)
(0.190328 -0.0125883 6.9347e-23)
(0.188389 -0.00618175 2.5192e-22)
(0.186298 -0.000133035 8.92641e-23)
(0.184137 0.00546405 7.03975e-23)
(0.181984 0.0105478 1.10153e-22)
(0.179905 0.015085 -1.8556e-21)
(0.177954 0.0190662 1.7558e-21)
(0.176172 0.0225003 -1.17969e-21)
(0.174583 0.025407 1.07202e-21)
(0.173192 0.0278071 -7.53994e-22)
(0.172018 0.0297376 9.17302e-22)
(0.171434 0.0315989 0)
(0.191739 -0.0538489 0)
(0.191166 -0.0565537 1.21607e-21)
(0.190749 -0.0589016 -1.65557e-20)
(0.190545 -0.0608834 3.91997e-22)
(0.190546 -0.0624136 1.9135e-20)
(0.190748 -0.0634099 1.13951e-21)
(0.19114 -0.0637878 1.14204e-21)
(0.191677 -0.0634824 -7.32801e-21)
(0.192325 -0.0624073 9.07185e-21)
(0.193013 -0.0604656 -8.29245e-24)
(0.193659 -0.0576452 -3.47498e-21)
(0.194179 -0.0539542 3.49585e-21)
(0.194481 -0.0494399 -1.21922e-21)
(0.194484 -0.0441932 1.4118e-21)
(0.194128 -0.0383454 -6.5042e-20)
(0.19338 -0.0320582 6.50374e-20)
(0.192236 -0.0255113 7.3812e-22)
(0.190725 -0.0188867 -8.24574e-22)
(0.188902 -0.012355 8.70518e-22)
(0.18684 -0.00606465 -1.1433e-21)
(0.184622 -0.000134386 -3.05565e-23)
(0.182334 0.00534891 7.76066e-22)
(0.180054 0.0103293 -9.14588e-22)
(0.177851 0.0147781 -2.643e-23)
(0.17578 0.018689 -6.94995e-23)
(0.173884 0.022073 3.08416e-22)
(0.172186 0.0249503 -1.81544e-22)
(0.170692 0.0273414 -1.21938e-22)
(0.169421 0.0292812 0)
(0.168775 0.031199 0)
(0.190206 -0.0554 0)
(0.189656 -0.0578575 -2.18914e-20)
(0.1893 -0.0600031 3.91807e-22)
(0.189158 -0.0617872 4.95356e-22)
(0.189221 -0.0631223 3.97174e-20)
(0.189481 -0.0639262 -2.04924e-20)
(0.189927 -0.0641164 -1.19352e-21)
(0.190505 -0.0636344 0)
(0.191187 -0.0623746 8.00874e-21)
(0.19189 -0.0602691 -8.14968e-21)
(0.192535 -0.0573078 3.65069e-21)
(0.193034 -0.0535022 -3.94695e-22)
(0.193296 -0.0489045 -3.29489e-21)
(0.193241 -0.0436091 8.27295e-23)
(0.192811 -0.0377485 -6.9169e-20)
(0.191975 -0.0314835 6.91946e-20)
(0.190733 -0.0249901 -4.47215e-23)
(0.189116 -0.0184448 -1.03423e-21)
(0.18718 -0.0120118 2.76809e-22)
(0.185002 -0.00583205 9.02228e-22)
(0.182666 -1.72658e-05 -6.9482e-22)
(0.180258 0.00535215 5.89923e-22)
(0.177859 0.0102257 0)
(0.175538 0.0145792 2.7599e-23)
(0.173351 0.0184095 4.94391e-22)
(0.171341 0.02173 -1.23941e-21)
(0.169535 0.024562 -1.61836e-22)
(0.167937 0.0269261 -1.94282e-23)
(0.166567 0.0288568 7.9679e-22)
(0.165845 0.0308027 0)
(0.188409 -0.0568527 -2.9184e-21)
(0.187879 -0.0590804 0)
(0.187583 -0.0610361 -1.38885e-21)
(0.187503 -0.0626311 2.07804e-20)
(0.187624 -0.0637765 -2.26338e-20)
(0.18794 -0.0643913 2.12629e-20)
(0.188431 -0.0643973 -2.14165e-20)
(0.189049 -0.0637327 -9.66644e-21)
(0.189755 -0.0622867 2.01612e-20)
(0.190465 -0.0600166 -2.31061e-22)
(0.191102 -0.0569108 -7.99851e-21)
(0.191572 -0.0529862 3.40067e-21)
(0.191787 -0.0482999 -1.94109e-21)
(0.191669 -0.04295 -2.19311e-21)
(0.191163 -0.0370703 -7.17011e-20)
(0.190239 -0.0308205 7.26936e-20)
(0.188901 -0.0243734 -9.65134e-22)
(0.187183 -0.0179007 -2.49032e-22)
(0.185143 -0.0115602 8.51023e-22)
(0.182857 -0.00548613 -6.4144e-22)
(0.180412 0.000216238 4.32498e-22)
(0.177895 0.00547254 -1.23413e-22)
(0.175385 0.0102374 2.37821e-22)
(0.172954 0.0144908 1.38294e-21)
(0.170658 0.0182329 -1.36376e-21)
(0.16854 0.0214793 1.73057e-21)
(0.166628 0.0242526 -1.9228e-21)
(0.164928 0.0265743 1.56473e-22)
(0.16346 0.0284798 0)
(0.162653 0.0304282 -5.77748e-23)
(0.186317 -0.0582113 3.03519e-21)
(0.185809 -0.0602232 -2.58606e-20)
(0.185571 -0.0619984 2.47718e-20)
(0.18555 -0.0634103 1.49685e-21)
(0.185728 -0.0643692 1.47469e-21)
(0.186098 -0.0647954 0)
(0.186625 -0.0646196 -1.4138e-21)
(0.187279 -0.0637643 -1.16938e-20)
(0.188 -0.0621325 1.95713e-20)
(0.188712 -0.0596951 -1.03728e-20)
(0.18933 -0.0564414 -5.30198e-22)
(0.189765 -0.0523942 3.51786e-21)
(0.189927 -0.0476156 -3.53676e-21)
(0.189742 -0.0422072 -8.45215e-23)
(0.189157 -0.0363041 -7.42939e-20)
(0.188147 -0.030065 7.42676e-20)
(0.186717 -0.0236596 3.63652e-23)
(0.184904 -0.0172547 -6.52627e-22)
(0.182767 -0.0110022 6.49249e-22)
(0.180384 -0.00503008 3.39069e-23)
(0.177841 0.000562566 4.7863e-22)
(0.175225 0.0057069 -1.35297e-21)
(0.172616 0.0103624 6.79143e-22)
(0.170084 0.0145127 -1.96091e-22)
(0.167688 0.0181611 0)
(0.165471 0.0213254 1.49956e-22)
(0.163459 0.0240295 1.57568e-22)
(0.161659 0.0262962 -2.93396e-21)
(0.160096 0.0281626 2.73792e-21)
(0.159199 0.0300915 6.00392e-23)
(0.183898 -0.0594778 0)
(0.183412 -0.0612846 -6.45492e-23)
(0.183233 -0.062885 2.61815e-20)
(0.18327 -0.0641173 -2.66896e-20)
(0.183502 -0.064891 -2.52761e-20)
(0.18392 -0.0651284 3.91902e-20)
(0.184483 -0.0647683 -1.0819e-20)
(0.185165 -0.0637159 -3.01143e-23)
(0.185895 -0.061898 -1.35378e-21)
(0.1866 -0.0592901 0)
(0.187193 -0.0558857 -4.17326e-21)
(0.187585 -0.0517134 7.83427e-21)
(0.187689 -0.0468405 -3.65027e-21)
(0.187434 -0.0413718 8.84429e-23)
(0.186769 -0.0354436 -7.50416e-20)
(0.185674 -0.0292133 7.5067e-20)
(0.184156 -0.0228473 -3.80512e-23)
(0.182255 -0.0165077 -4.2245e-22)
(0.18003 -0.0103405 4.50935e-22)
(0.17756 -0.00446785 -3.05401e-23)
(0.174931 0.00101707 0)
(0.172228 0.00605058 -2.11914e-22)
(0.169532 0.0105965 -8.32854e-23)
(0.166912 0.014642 2.25823e-21)
(0.164426 0.0181931 -6.06829e-21)
(0.162118 0.0212697 4.28189e-21)
(0.160013 0.0238968 4.54191e-21)
(0.158121 0.0260985 -4.69972e-21)
(0.156467 0.0279145 -7.4987e-23)
(0.155479 0.0298057 0)
(0.181117 -0.0606511 0)
(0.180656 -0.0622596 -2.64975e-20)
(0.180535 -0.0636881 2.88539e-20)
(0.18063 -0.0647416 2.59463e-20)
(0.180915 -0.0653295 -2.82664e-20)
(0.181376 -0.0653779 -1.46369e-20)
(0.181973 -0.064826 8.21666e-22)
(0.182675 -0.063572 1.41703e-20)
(0.183408 -0.0615666 2.84634e-21)
(0.184098 -0.0587857 0)
(0.18466 -0.0552288 0)
(0.185002 -0.0509306 -3.22964e-21)
(0.185044 -0.0459633 3.96863e-21)
(0.184716 -0.0404348 0)
(0.183972 -0.0344821 -7.43756e-20)
(0.182794 -0.0282612 7.43726e-20)
(0.181194 -0.021935 0)
(0.179212 -0.0156605 1.44597e-22)
(0.176909 -0.00957813 -1.3073e-22)
(0.174363 -0.00380398 0)
(0.171659 0.00157422 0)
(0.168883 0.00649764 5.30601e-22)
(0.166112 0.0109341 -2.37502e-21)
(0.163416 0.0148739 -2.56937e-22)
(0.160852 0.0183256 2.49338e-21)
(0.158463 0.0213107 6.08377e-21)
(0.156275 0.0238553 -6.39503e-21)
(0.154299 0.0259847 -5.83185e-21)
(0.15256 0.0277413 6.01393e-21)
(0.151482 0.0295806 0)
(0.177934 -0.0617273 0)
(0.177504 -0.0631381 0)
(0.177443 -0.064396 0)
(0.177595 -0.0652699 -2.78667e-20)
(0.177933 -0.0656688 1.3838e-20)
(0.17843 -0.0655274 1.63739e-20)
(0.17906 -0.0647725 1.73435e-21)
(0.179775 -0.0633156 1.24261e-20)
(0.180505 -0.0611201 -1.15163e-21)
(0.181175 -0.0581644 -1.15696e-20)
(0.181697 -0.0544545 -6.07494e-22)
(0.181986 -0.0500313 -1.04812e-21)
(0.181961 -0.0449718 -1.99739e-21)
(0.181559 -0.0393866 1.48405e-21)
(0.180736 -0.0334129 -7.20861e-20)
(0.17948 -0.0272049 7.20927e-20)
(0.177803 -0.0209215 2.25584e-22)
(0.175748 -0.0147145 -1.92614e-22)
(0.173377 -0.00871842 -1.00874e-22)
(0.170767 -0.0030436 -1.27399e-22)
(0.168002 0.00222765 2.6859e-21)
(0.165164 0.00704104 6.23927e-22)
(0.162333 0.0113681 -3.13587e-21)
(0.159574 0.0152019 5.0907e-22)
(0.156944 0.018553 -3.36142e-21)
(0.154485 0.0214442 -4.60252e-21)
(0.152224 0.0239027 8.16812e-21)
(0.150171 0.0259546 0)
(0.148355 0.0276453 0)
(0.147192 0.0294219 0)
(0.174309 -0.0626951 -3.2809e-20)
(0.173915 -0.063908 3.45891e-20)
(0.173914 -0.064994 0)
(0.174126 -0.0656851 -1.59009e-20)
(0.174514 -0.0658909 1.80397e-20)
(0.175049 -0.0655537 1.47559e-20)
(0.175706 -0.0645873 -1.87653e-20)
(0.176429 -0.0629262 0)
(0.17715 -0.0605382 -1.57797e-21)
(0.177793 -0.0574069 0)
(0.178271 -0.0535452 7.68479e-25)
(0.178501 -0.0490003 7.05947e-24)
(0.178407 -0.0438533 4.41809e-22)
(0.177929 -0.0382172 1.7079e-22)
(0.17703 -0.032229 -6.80924e-20)
(0.175698 -0.0260403 6.80747e-20)
(0.173952 -0.0198055 -2.81497e-23)
(0.171834 -0.013671 2.50553e-23)
(0.169405 -0.00776522 -4.50277e-23)
(0.166743 -0.00219248 -4.84397e-23)
(0.16393 0.00297008 0)
(0.161045 0.00767254 -4.36383e-22)
(0.158166 0.0118897 0)
(0.155357 0.0156172 3.61478e-21)
(0.152674 0.0188672 -4.58529e-21)
(0.150158 0.0216635 -4.39321e-21)
(0.147834 0.0240337 4.84931e-21)
(0.145714 0.026005 0)
(0.14383 0.0276252 -7.1008e-21)
(0.142587 0.0293315 7.7665e-21)
(0.170193 -0.0635388 0)
(0.169842 -0.0645519 8.11028e-23)
(0.169907 -0.0654624 3.68713e-20)
(0.17018 -0.0659652 -3.51973e-20)
(0.170615 -0.0659737 2.12456e-21)
(0.171188 -0.0654299 -4.06215e-21)
(0.171868 -0.0642465 1.92112e-21)
(0.172595 -0.0623793 0)
(0.173302 -0.0597975 0)
(0.173911 -0.0564916 0)
(0.17434 -0.0524817 6.57976e-22)
(0.174507 -0.0478208 -3.43131e-21)
(0.174342 -0.0425942 5.35184e-21)
(0.173789 -0.0369162 -2.21422e-21)
(0.172815 -0.0309232 -6.14401e-20)
(0.171415 -0.0247633 6.21211e-20)
(0.169606 -0.0185862 -3.32464e-23)
(0.167434 -0.0125321 -9.89316e-22)
(0.16496 -0.00672301 9.86789e-22)
(0.162259 -0.0012573 1.88557e-22)
(0.159411 0.00379313 2.97934e-22)
(0.156494 0.0083825 0)
(0.153581 0.0124886 0)
(0.150737 0.0161093 6.6395e-22)
(0.148013 0.0192579 -1.49761e-21)
(0.145451 0.0219589 8.19393e-22)
(0.143076 0.0242399 1.21025e-20)
(0.140899 0.0261289 -1.1014e-20)
(0.138956 0.0276759 1.16427e-22)
(0.137639 0.0293071 0)
(0.165537 -0.0642351 -3.72202e-20)
(0.165234 -0.0650488 3.45207e-20)
(0.165368 -0.065776 1.61651e-20)
(0.165705 -0.0660822 -1.87906e-20)
(0.166189 -0.0658882 -1.95251e-20)
(0.1668 -0.0651243 1.99978e-20)
(0.167498 -0.0637227 1.58e-20)
(0.168225 -0.061647 -1.41524e-20)
(0.168912 -0.0588715 7.50926e-21)
(0.169483 -0.0553943 -6.71994e-21)
(0.169857 -0.0512425 5.65188e-21)
(0.169959 -0.0464746 -2.99918e-21)
(0.169721 -0.0411795 -1.8195e-21)
(0.169094 -0.0354724 7.80991e-23)
(0.16805 -0.0294878 -5.36177e-20)
(0.166586 -0.0233701 5.35928e-20)
(0.164725 -0.0172631 1.13389e-23)
(0.16251 -0.0113003 7.30315e-22)
(0.160003 -0.00559725 1.30441e-21)
(0.157277 -0.000245932 -1.93645e-21)
(0.154408 0.0046869 2.60825e-21)
(0.151474 0.00915946 -2.45508e-21)
(0.148542 0.0131524 7.84025e-21)
(0.145676 0.0166651 -6.8036e-21)
(0.142926 0.019712 -6.50394e-21)
(0.140331 0.0223176 6.33677e-21)
(0.137916 0.0245095 7.30872e-21)
(0.135692 0.0263157 -7.96249e-21)
(0.133698 0.0277884 -1.2729e-20)
(0.132315 0.0293418 1.20643e-20)
(0.160279 -0.0647557 -2.49612e-21)
(0.16003 -0.0653684 -3.92698e-20)
(0.16024 -0.0659015 4.32162e-20)
(0.160643 -0.0660028 0)
(0.161179 -0.0655953 -2.42257e-21)
(0.161827 -0.0646031 0)
(0.162541 -0.0629812 -2.21217e-21)
(0.163263 -0.0606962 1.54288e-20)
(0.163925 -0.0577296 -1.65798e-20)
(0.164453 -0.0540872 8.23441e-22)
(0.164769 -0.0498032 -1.40788e-21)
(0.164802 -0.0449413 -5.72601e-22)
(0.164491 -0.0395929 -2.27571e-22)
(0.163792 -0.0338735 -8.10649e-23)
(0.162683 -0.0279149 -4.26213e-20)
(0.161163 -0.0218567 4.26091e-20)
(0.159258 -0.0158361 -1.17692e-23)
(0.157012 -0.00997935 -7.62692e-23)
(0.154486 -0.00439476 3.07059e-22)
(0.15175 0.000831985 0)
(0.148878 0.00563941 4.5679e-22)
(0.145941 0.00998958 7.4308e-21)
(0.143007 0.0138657 -7.57375e-21)
(0.140134 0.0172685 -1.1408e-21)
(0.137371 0.0202129 0)
(0.134756 0.0227233 -1.17368e-21)
(0.132312 0.0248264 0)
(0.130053 0.0265504 -1.55755e-20)
(0.128017 0.0279486 1.62797e-20)
(0.126576 0.0294235 -9.03974e-22)
(0.154348 -0.0650639 -3.96801e-20)
(0.154163 -0.0654678 4.1664e-20)
(0.154456 -0.0657951 1.10075e-22)
(0.154927 -0.0656844 2.28936e-20)
(0.15552 -0.0650479 -3.80947e-20)
(0.156202 -0.0638246 2.27007e-20)
(0.156929 -0.0619808 2.27715e-21)
(0.157643 -0.0594879 4.78097e-23)
(0.158275 -0.0563358 0)
(0.158755 -0.0525382 -8.50371e-22)
(0.159009 -0.0481361 -3.76968e-21)
(0.158972 -0.0431976 5.87271e-21)
(0.158588 -0.0378162 2.14768e-22)
(0.15782 -0.0321064 -3.69147e-22)
(0.156651 -0.0261964 -2.82689e-20)
(0.155084 -0.0202197 2.85898e-20)
(0.153148 -0.0143062 1.61843e-22)
(0.150885 -0.00857426 1.40188e-22)
(0.148355 -0.00312442 -3.49056e-21)
(0.145625 0.00196428 3.13661e-21)
(0.142765 0.00663566 -4.71724e-22)
(0.139844 0.0108556 0)
(0.136923 0.0146094 -1.12539e-21)
(0.13406 0.0178991 1.1743e-21)
(0.131299 0.0207395 -9.02934e-21)
(0.128678 0.0231544 2.17736e-20)
(0.126219 0.0251695 -8.76778e-21)
(0.123934 0.0268122 1.76914e-22)
(0.121866 0.0281369 -1.73674e-20)
(0.120375 0.0295338 1.84956e-20)
(0.147657 -0.0651075 0)
(0.147551 -0.0652921 0)
(0.147932 -0.0654025 -2.47547e-20)
(0.148478 -0.0650679 2.00502e-20)
(0.149129 -0.0641927 0)
(0.149845 -0.0627366 -2.54457e-21)
(0.150583 -0.0606709 -2.47256e-21)
(0.151283 -0.0579749 -2.22188e-21)
(0.151881 -0.0546471 0)
(0.152308 -0.0507093 0)
(0.152497 -0.0462086 -7.45626e-22)
(0.152388 -0.0412169 2.33054e-21)
(0.151933 -0.0358288 -2.48836e-21)
(0.1511 -0.0301566 -7.12474e-23)
(0.149878 -0.0243236 -1.15218e-20)
(0.148275 -0.0184562 1.14973e-20)
(0.14632 -0.012676 -4.06212e-23)
(0.144056 -0.00709256 1.20153e-21)
(0.141539 -0.00179818 -1.51283e-21)
(0.138834 0.00313506 0)
(0.136006 0.00765636 0)
(0.133118 0.0117352 0)
(0.13023 0.0153591 0)
(0.127393 0.0185306 -1.58728e-21)
(0.124651 0.0212643 -1.41173e-21)
(0.122039 0.0235828 0)
(0.119576 0.0255102 -1.34911e-20)
(0.117278 0.0270731 1.03593e-20)
(0.115187 0.0283257 0)
(0.113653 0.0296462 0)
(0.140106 -0.0648163 -3.01359e-21)
(0.140093 -0.0647696 0)
(0.14057 -0.0646539 0)
(0.141201 -0.0640788 0)
(0.14191 -0.0629616 0)
(0.142658 -0.061272 0)
(0.143403 -0.0589881 2.52527e-21)
(0.144085 -0.0560986 1.19514e-21)
(0.144643 -0.0526109 -7.81671e-21)
(0.145012 -0.0485545 2.23035e-21)
(0.145131 -0.0439819 1.28996e-20)
(0.144949 -0.038968 -7.7607e-21)
(0.144425 -0.0336071 7.38297e-22)
(0.143533 -0.0280081 1.31525e-21)
(0.142268 -0.022288 9.42346e-21)
(0.140642 -0.0165648 -9.47043e-21)
(0.138683 -0.0109505 -1.35939e-21)
(0.136435 -0.00554528 -5.90785e-22)
(0.133952 -0.000432568 6.60923e-21)
(0.131292 0.00432289 -9.47318e-21)
(0.128517 0.00867578 8.40726e-23)
(0.125684 0.0125991 5.99473e-21)
(0.122849 0.0160823 8.95743e-22)
(0.120058 0.0191283 1.6211e-21)
(0.117353 0.0217507 0)
(0.114766 0.0239706 0)
(0.112315 0.0258101 0)
(0.110015 0.0272943 0)
(0.107912 0.0284768 0)
(0.106343 0.0297228 -1.55892e-21)
(0.131568 -0.0640951 6.2622e-21)
(0.131664 -0.0638061 -2.50098e-20)
(0.13225 -0.0634483 2.59936e-20)
(0.132968 -0.0626236 0)
(0.133737 -0.0612637 -2.33119e-20)
(0.134516 -0.0593437 2.69309e-20)
(0.135261 -0.0568513 -2.17621e-20)
(0.135919 -0.0537851 1.84305e-20)
(0.136429 -0.0501614 0)
(0.136735 -0.0460169 5.86893e-21)
(0.136782 -0.0414087 -2.2906e-21)
(0.136527 -0.0364135 -7.4421e-21)
(0.135937 -0.0311238 2.18479e-21)
(0.134993 -0.0256432 2.05431e-22)
(0.133697 -0.0200812 3.44143e-20)
(0.132062 -0.0145459 -3.41256e-20)
(0.130118 -0.00913867 -5.32046e-22)
(0.127908 -0.00394903 -2.0881e-21)
(0.125481 0.000948871 7.95276e-21)
(0.122891 0.00549799 1.03213e-21)
(0.120193 0.00965861 -7.18293e-21)
(0.117441 0.0134073 -9.89891e-22)
(0.114682 0.0167349 -1.79285e-20)
(0.11196 0.0196444 1.45111e-20)
(0.109313 0.0221484 -1.43277e-20)
(0.106769 0.0242657 1.60451e-20)
(0.104346 0.0260158 0)
(0.10206 0.0274218 -1.56826e-20)
(0.0999561 0.0285357 1.51836e-20)
(0.0983613 0.0297093 3.41706e-21)
(0.121885 -0.0628091 2.03672e-20)
(0.12211 -0.0622658 -2.6501e-20)
(0.122815 -0.0616517 -2.30486e-20)
(0.123622 -0.0605765 2.74635e-20)
(0.124448 -0.0589765 2.78564e-20)
(0.125252 -0.0568362 -5.44963e-20)
(0.125991 -0.054154 3.72474e-20)
(0.126615 -0.0509385 -9.66792e-21)
(0.127071 -0.0472145 0)
(0.127307 -0.043025 -6.92174e-21)
(0.127279 -0.0384307 6.27214e-21)
(0.126951 -0.0335083 -2.82242e-22)
(0.1263 -0.0283467 -5.16604e-22)
(0.125315 -0.0230429 5.66781e-22)
(0.124002 -0.0176964 6.45447e-20)
(0.122378 -0.0124043 -6.4248e-20)
(0.120472 -0.00725589 -1.43225e-21)
(0.118325 -0.00232921 1.06797e-21)
(0.115982 0.00231164 -4.18239e-22)
(0.11349 0.00661765 -9.40889e-21)
(0.1109 0.0105548 8.54408e-21)
(0.108256 0.0141031 2.1509e-21)
(0.105602 0.0172547 1.02789e-20)
(0.102975 0.0200122 -2.55284e-20)
(0.100411 0.0223866 3.26465e-20)
(0.0979331 0.0243939 -1.59398e-20)
(0.0955593 0.0260509 -1.87547e-20)
(0.0933038 0.0273776 1.81545e-20)
(0.091214 0.0284239 1.64594e-20)
(0.0896037 0.0295263 -2.07786e-20)
(0.110852 -0.0607612 3.23898e-20)
(0.111225 -0.0599503 3.82361e-21)
(0.112052 -0.0590793 -4.79521e-21)
(0.112948 -0.0577569 -2.91197e-20)
(0.113825 -0.0559292 -3.28768e-21)
(0.114644 -0.0535911 4.75034e-21)
(0.115366 -0.0507522 6.75511e-23)
(0.115945 -0.0474307 0)
(0.116335 -0.0436593 0)
(0.116495 -0.0394861 -6.98227e-21)
(0.116389 -0.0349737 7.89672e-21)
(0.115991 -0.0301967 2.84254e-22)
(0.115288 -0.0252384 0)
(0.114276 -0.0201868 -3.58503e-23)
(0.112965 -0.0151301 1.00028e-19)
(0.111376 -0.010152 -9.95903e-20)
(0.109537 -0.00532865 -6.16516e-22)
(0.107485 -0.000725641 0)
(0.105259 0.00360369 4.21218e-22)
(0.102902 0.00761868 -7.87598e-21)
(0.100453 0.0112911 7.60566e-21)
(0.0979539 0.0146042 -1.15381e-21)
(0.0954393 0.0175514 0)
(0.0929422 0.0201343 1.83052e-22)
(0.0904912 0.0223618 3.95937e-21)
(0.0881092 0.024247 -2.51683e-21)
(0.0858104 0.025803 2.14933e-20)
(0.0836088 0.0270465 -1.99864e-23)
(0.0815522 0.028024 1.67494e-21)
(0.0799404 0.0290546 -1.72777e-20)
(0.0981919 -0.0576478 -3.0943e-20)
(0.0987256 -0.0565747 2.65059e-20)
(0.0996721 -0.0554531 0)
(0.100646 -0.053901 -2.67121e-20)
(0.10156 -0.0518756 3.14725e-20)
(0.102377 -0.0493832 -1.42587e-20)
(0.103064 -0.046444 2.30314e-20)
(0.103582 -0.0430852 -1.04269e-20)
(0.103895 -0.0393459 0)
(0.103971 -0.0352774 0)
(0.103786 -0.0309418 2.94372e-21)
(0.103325 -0.0264093 -2.8589e-21)
(0.102583 -0.0217552 0)
(0.101564 -0.017056 1.38668e-23)
(0.100283 -0.012386 1.41607e-19)
(0.0987611 -0.00781439 -1.41644e-19)
(0.0970262 -0.00340249 1.56859e-22)
(0.0951098 0.000797605 0)
(0.0930453 0.00474383 3.99372e-21)
(0.0908666 0.00840419 -3.84317e-21)
(0.0886068 0.0117563 0)
(0.0862971 0.0147865 0)
(0.0839665 0.0174888 1.36896e-20)
(0.0816413 0.0198639 -2.55115e-20)
(0.0793452 0.0219181 1.0537e-20)
(0.0770973 0.0236608 -2.31401e-20)
(0.0749093 0.0251011 2.56234e-20)
(0.0727942 0.026252 0)
(0.0707989 0.0271551 -2.46022e-20)
(0.0692065 0.0281089 1.94963e-20)
(0.0835119 -0.0529888 -3.10328e-20)
(0.0842029 -0.0516793 3.01797e-20)
(0.0852492 -0.0503376 -3.1593e-20)
(0.0862748 -0.0486027 6.21736e-22)
(0.0871974 -0.0464441 1.02118e-21)
(0.0879847 -0.0438786 4.43407e-20)
(0.0886116 -0.0409357 -1.35651e-20)
(0.0890492 -0.0376499 -1.38676e-21)
(0.0892715 -0.0340643 8.71502e-21)
(0.0892587 -0.0302308 -1.5778e-20)
(0.0889986 -0.0262082 6.98676e-21)
(0.0884872 -0.0220593 1.60894e-21)
(0.0877286 -0.0178481 -1.51543e-21)
(0.0867343 -0.013637 -6.5109e-23)
(0.0855219 -0.0094844 1.90635e-19)
(0.0841132 -0.00544284 -1.8975e-19)
(0.082533 -0.00155765 -2.60268e-21)
(0.080807 0.00213335 6.4634e-21)
(0.0789613 0.00559986 -3.95966e-21)
(0.0770209 0.00881872 -1.16082e-20)
(0.0750097 0.0117733 2.4106e-20)
(0.0729503 0.0144529 -1.23265e-20)