/*--------------------------------*- C++ -*----------------------------------*\
  =========                 |
  \\      /  F ield         | OpenFOAM: The Open Source CFD Toolbox
   \\    /   O peration     | Website:  https://openfoam.org
    \\  /    A nd           | Version:  12
     \\/     M anipulation  |
\*---------------------------------------------------------------------------*/
FoamFile
{
    format      ascii;
    class       volSymmTensorField;
    location    "320";
    object      UPrime2Mean;
}
// * * * * * * * * * * * * * * * * * * * * * * * * * * * * * * * * * * * * * //

dimensions      [0 2 -2 0 0 0 0];

internalField   nonuniform List<symmTensor> 
6750
(
(2.17141e-10 3.07282e-09 0 8.47502e-08 0 0)
(5.12729e-09 5.96234e-08 0 1.1907e-06 0 0)
(1.66359e-08 2.01356e-07 0 3.81377e-06 0 0)
(3.08961e-08 4.09511e-07 0 7.98382e-06 0 0)
(7.32825e-08 8.76231e-07 0 1.35621e-05 0 0)
(1.95993e-11 3.16053e-10 0 6.40547e-08 0 0)
(9.18376e-10 2.42638e-08 0 9.9666e-07 0 0)
(6.35523e-09 1.20982e-07 0 3.26078e-06 0 0)
(2.19232e-08 3.38296e-07 0 6.81664e-06 0 0)
(5.84485e-08 7.37483e-07 0 1.14351e-05 0 0)
(1.61793e-11 3.4591e-10 0 5.82503e-08 0 0)
(7.2131e-10 2.37608e-08 0 9.07842e-07 0 0)
(6.47121e-09 1.28856e-07 0 2.93191e-06 0 0)
(2.52852e-08 3.66976e-07 0 5.99619e-06 0 0)
(6.58636e-08 7.59331e-07 0 9.7693e-06 0 0)
(1.37989e-11 3.17752e-10 0 5.09632e-08 0 0)
(1.03576e-09 2.79927e-08 0 8.01407e-07 0 0)
(8.81365e-09 1.46438e-07 0 2.56131e-06 0 0)
(3.23175e-08 3.98188e-07 0 5.16497e-06 0 0)
(7.79602e-08 7.83148e-07 0 8.29793e-06 0 0)
(1.05498e-11 2.4581e-10 0 4.2818e-08 0 0)
(1.38758e-09 3.04322e-08 0 6.85445e-07 0 0)
(1.14478e-08 1.5644e-07 0 2.18349e-06 0 0)
(3.99991e-08 4.13766e-07 0 4.37339e-06 0 0)
(9.19808e-08 7.9215e-07 0 6.98247e-06 0 0)
(7.1884e-12 1.40223e-10 0 3.48204e-08 0 0)
(1.65951e-09 3.05622e-08 0 5.69476e-07 0 0)
(1.3866e-08 1.58094e-07 0 1.81629e-06 0 0)
(4.76963e-08 4.14465e-07 0 3.62874e-06 0 0)
(1.07745e-07 7.8583e-07 0 5.77804e-06 0 0)
(5.62134e-12 3.39774e-11 0 2.74866e-08 0 0)
(1.86391e-09 2.91744e-08 0 4.59057e-07 0 0)
(1.61329e-08 1.53799e-07 0 1.46902e-06 0 0)
(5.56788e-08 4.03829e-07 0 2.93381e-06 0 0)
(1.25635e-07 7.65049e-07 0 4.66676e-06 0 0)
(6.8824e-12 -5.02355e-11 0 2.10112e-08 0 0)
(2.03893e-09 2.69195e-08 0 3.57415e-07 0 0)
(1.83803e-08 1.4521e-07 0 1.14829e-06 0 0)
(6.4122e-08 3.83473e-07 0 2.29454e-06 0 0)
(1.45552e-07 7.28632e-07 0 3.64888e-06 0 0)
(1.09966e-11 -1.05003e-10 0 1.54415e-08 0 0)
(2.20723e-09 2.41254e-08 0 2.66664e-07 0 0)
(2.06375e-08 1.33037e-07 0 8.60014e-07 0 0)
(7.28608e-08 3.5366e-07 0 1.72002e-06 0 0)
(1.66706e-07 6.74708e-07 0 2.73535e-06 0 0)
(1.72727e-11 -1.31514e-10 0 1.07742e-08 0 0)
(2.37332e-09 2.09327e-08 0 1.88331e-07 0 0)
(2.2838e-08 1.17622e-07 0 6.09458e-07 0 0)
(8.14694e-08 3.14549e-07 0 1.22003e-06 0 0)
(1.87821e-07 6.02453e-07 0 1.94048e-06 0 0)
(2.4606e-11 -1.34551e-10 0 6.99344e-09 0 0)
(2.53036e-09 1.7417e-08 0 1.23467e-07 0 0)
(2.4866e-08 9.93487e-08 0 4.00772e-07 0 0)
(8.94026e-08 2.66937e-07 0 8.02969e-07 0 0)
(2.07413e-07 5.12953e-07 0 1.27735e-06 0 0)
(3.18049e-11 -1.19739e-10 0 4.07619e-09 0 0)
(2.66554e-09 1.36485e-08 0 7.26103e-08 0 0)
(2.65921e-08 7.87787e-08 0 2.36403e-07 0 0)
(9.61404e-08 2.12415e-07 0 4.74041e-07 0 0)
(2.24121e-07 4.09226e-07 0 7.54218e-07 0 0)
(3.76416e-11 -9.16296e-11 0 1.9869e-09 0 0)
(2.76268e-09 9.71468e-09 0 3.5747e-08 0 0)
(2.79035e-08 5.66555e-08 0 1.16816e-07 0 0)
(1.01278e-07 1.53167e-07 0 2.34435e-07 0 0)
(2.36936e-07 2.95642e-07 0 3.73048e-07 0 0)
(4.00618e-11 -5.25914e-11 0 6.72941e-10 0 0)
(2.79866e-09 5.72485e-09 0 1.2321e-08 0 0)
(2.87215e-08 3.38219e-08 0 4.05076e-08 0 0)
(1.04584e-07 9.16394e-08 0 8.13592e-08 0 0)
(2.45316e-07 1.77135e-07 0 1.29483e-07 0 0)
(3.51021e-11 -1.28776e-11 0 7.26831e-11 0 0)
(2.72177e-09 1.81528e-09 0 1.2812e-09 0 0)
(2.90239e-08 1.10998e-08 0 4.3183e-09 0 0)
(1.06058e-07 3.02025e-08 0 8.71188e-09 0 0)
(2.49243e-07 5.84905e-08 0 1.389e-08 0 0)
(3.51537e-11 9.98823e-12 0 9.06277e-11 0 0)
(2.72226e-09 -1.87233e-09 0 1.36808e-09 0 0)
(2.9023e-08 -1.13016e-08 0 4.4954e-09 0 0)
(1.06055e-07 -3.0574e-08 0 8.96335e-09 0 0)
(2.49233e-07 -5.90305e-08 0 1.42017e-08 0 0)
(3.99931e-11 5.07079e-11 0 7.26957e-10 0 0)
(2.79745e-09 -5.78225e-09 0 1.25895e-08 0 0)
(2.87172e-08 -3.40216e-08 0 4.1047e-08 0 0)
(1.04572e-07 -9.20049e-08 0 8.21227e-08 0 0)
(2.45285e-07 -1.77662e-07 0 1.30428e-07 0 0)
(3.74926e-11 9.06067e-11 0 2.07753e-09 0 0)
(2.76026e-09 -9.76896e-09 0 3.62026e-08 0 0)
(2.78957e-08 -5.68476e-08 0 1.17728e-07 0 0)
(1.01257e-07 -1.53517e-07 0 2.35723e-07 0 0)
(2.36885e-07 -2.96141e-07 0 3.74639e-07 0 0)
(3.16254e-11 1.1982e-10 0 4.20152e-09 0 0)
(2.66225e-09 -1.36972e-08 0 7.32548e-08 0 0)
(2.65816e-08 -7.89585e-08 0 2.37692e-07 0 0)
(9.61126e-08 -2.12742e-07 0 4.75856e-07 0 0)
(2.24051e-07 -4.09681e-07 0 7.56455e-07 0 0)
(2.44424e-11 1.35978e-10 0 7.14997e-09 0 0)
(2.52669e-09 -1.74587e-08 0 1.24299e-07 0 0)
(2.48543e-08 -9.95133e-08 0 4.02436e-07 0 0)
(8.93712e-08 -2.67235e-07 0 8.05303e-07 0 0)
(2.07328e-07 -5.13349e-07 0 1.28021e-06 0 0)
(1.71739e-11 1.34346e-10 0 1.09571e-08 0 0)
(2.36972e-09 -2.09664e-08 0 1.89348e-07 0 0)
(2.28264e-08 -1.1777e-07 0 6.11493e-07 0 0)
(8.14366e-08 -3.14814e-07 0 1.22287e-06 0 0)
(1.87722e-07 -6.02776e-07 0 1.94394e-06 0 0)
(1.10122e-11 1.09187e-10 0 1.56449e-08 0 0)
(2.20366e-09 -2.41483e-08 0 2.67858e-07 0 0)
(2.06245e-08 -1.3316e-07 0 8.62409e-07 0 0)
(7.28261e-08 -3.53881e-07 0 1.72332e-06 0 0)
(1.666e-07 -6.74947e-07 0 2.7393e-06 0 0)
(7.04047e-12 5.57058e-11 0 2.12276e-08 0 0)
(2.03467e-09 -2.69239e-08 0 3.58766e-07 0 0)
(1.83615e-08 -1.45285e-07 0 1.15102e-06 0 0)
(6.40757e-08 -3.83615e-07 0 2.29826e-06 0 0)
(1.45442e-07 -7.28783e-07 0 3.65325e-06 0 0)
(5.91209e-12 -2.7638e-11 0 2.77075e-08 0 0)
(1.85932e-09 -2.91594e-08 0 4.60535e-07 0 0)
(1.61106e-08 -1.53823e-07 0 1.47206e-06 0 0)
(5.56317e-08 -4.03923e-07 0 2.93808e-06 0 0)
(1.25527e-07 -7.65174e-07 0 4.67205e-06 0 0)
(7.58026e-12 -1.3391e-10 0 3.50392e-08 0 0)
(1.65573e-09 -3.05366e-08 0 5.71053e-07 0 0)
(1.38478e-08 -1.58102e-07 0 1.81963e-06 0 0)
(4.7665e-08 -4.14584e-07 0 3.63358e-06 0 0)
(1.07659e-07 -7.85992e-07 0 5.78425e-06 0 0)
(1.09896e-11 -2.39969e-10 0 4.30305e-08 0 0)
(1.38453e-09 -3.03976e-08 0 6.87106e-07 0 0)
(1.14328e-08 -1.56435e-07 0 2.18717e-06 0 0)
(3.99742e-08 -4.1389e-07 0 4.37896e-06 0 0)
(9.19018e-08 -7.92312e-07 0 6.98987e-06 0 0)
(1.42116e-11 -3.12917e-10 0 5.11669e-08 0 0)
(1.03339e-09 -2.79534e-08 0 8.0313e-07 0 0)
(8.80169e-09 -1.46426e-07 0 2.56531e-06 0 0)
(3.2299e-08 -3.98339e-07 0 5.17141e-06 0 0)
(7.78864e-08 -7.83292e-07 0 8.30677e-06 0 0)
(1.64671e-11 -3.42166e-10 0 5.84439e-08 0 0)
(7.18927e-10 -2.3718e-08 0 9.096e-07 0 0)
(6.46027e-09 -1.28835e-07 0 2.93622e-06 0 0)
(2.52637e-08 -3.67093e-07 0 6.00351e-06 0 0)
(6.57855e-08 -7.59329e-07 0 9.77988e-06 0 0)
(1.97069e-11 -3.13979e-10 0 6.42362e-08 0 0)
(9.14973e-10 -2.42264e-08 0 9.98418e-07 0 0)
(6.34273e-09 -1.20957e-07 0 3.26531e-06 0 0)
(2.18965e-08 -3.38361e-07 0 6.8248e-06 0 0)
(5.83708e-08 -7.37223e-07 0 1.14476e-05 0 0)
(2.16694e-10 -3.07095e-09 0 8.49189e-08 0 0)
(5.11903e-09 -5.95805e-08 0 1.19238e-06 0 0)
(1.66147e-08 -2.01273e-07 0 3.81832e-06 0 0)
(3.08587e-08 -4.09304e-07 0 7.99242e-06 0 0)
(7.31934e-08 -8.75452e-07 0 1.35758e-05 0 0)
(7.8025e-07 4.85144e-06 0 3.29108e-05 0 0)
(1.81824e-06 8.90578e-06 0 4.64375e-05 0 0)
(3.19514e-06 1.36394e-05 0 6.127e-05 0 0)
(4.68097e-06 1.85225e-05 -4.254e-25 7.67001e-05 -1.10991e-24 8.73792e-43)
(6.23154e-06 2.34273e-05 0 9.18409e-05 0 0)
(7.80468e-06 2.81969e-05 0 0.000105946 0 0)
(9.34476e-06 3.26407e-05 4.35464e-23 0.000118331 1.14747e-22 3.3747e-39)
(1.08122e-05 3.65891e-05 -4.80593e-23 0.000128321 -1.25454e-22 3.43415e-39)
(1.21518e-05 3.98547e-05 -4.07753e-25 0.000135244 -1.05875e-24 1.93027e-43)
(1.34292e-05 4.2516e-05 -2.83411e-23 0.000139024 -7.29841e-23 7.28952e-40)
(1.45785e-05 4.43725e-05 5.37182e-26 0.000139115 -7.05701e-26 1.47809e-42)
(1.56257e-05 4.53046e-05 1.48654e-25 0.000134834 2.12811e-25 1.74354e-42)
(1.65858e-05 4.53942e-05 1.67836e-23 0.00012691 4.04849e-23 1.73548e-40)
(1.74808e-05 4.4675e-05 1.71971e-23 0.000115908 4.02551e-23 1.419e-40)
(1.83356e-05 4.31957e-05 4.13534e-23 0.000102647 9.33155e-23 6.37112e-40)
(1.91736e-05 4.10053e-05 -4.25417e-23 8.81079e-05 -9.20152e-23 6.37228e-40)
(2.00233e-05 3.81534e-05 1.75517e-23 7.33168e-05 3.60904e-23 8.53813e-41)
(2.09135e-05 3.46806e-05 1.67825e-23 5.92132e-05 3.25111e-23 6.15311e-41)
(2.18757e-05 3.06351e-05 -9.08566e-25 4.65941e-05 -1.67799e-24 1.85498e-42)
(2.29502e-05 2.60829e-05 -9.8121e-25 3.60408e-05 -1.62789e-24 1.60775e-42)
(2.4216e-05 2.11283e-05 -3.44626e-23 2.78773e-05 -5.18079e-23 2.1667e-40)
(2.56814e-05 1.57655e-05 5.3029e-25 2.19993e-05 6.95936e-25 4.36317e-44)
(2.7302e-05 1.01082e-05 -6.48685e-23 1.84319e-05 -7.36227e-23 5.68088e-40)
(2.9079e-05 4.29413e-06 6.59739e-23 1.69393e-05 6.1678e-23 5.58076e-40)
(3.09933e-05 -1.54568e-06 0 1.71615e-05 0 0)
(3.30018e-05 -7.28764e-06 0 1.86858e-05 0 0)
(3.50512e-05 -1.28178e-05 1.01453e-24 2.10995e-05 3.44427e-25 9.16504e-44)
(3.7112e-05 -1.80225e-05 0 2.40251e-05 0 0)
(3.92351e-05 -2.27634e-05 0 2.71112e-05 0 0)
(4.11774e-05 -2.68927e-05 0 2.99767e-05 0 0)
(1.22024e-06 6.68384e-06 0 3.94822e-05 0 0)
(2.39265e-06 1.10404e-05 0 5.39948e-05 0 0)
(3.7508e-06 1.56419e-05 0 6.85575e-05 0 0)
(5.19902e-06 2.03104e-05 4.2481e-25 8.30107e-05 1.10203e-24 7.77226e-43)
(6.72182e-06 2.49809e-05 0 9.68182e-05 0 0)
(8.27173e-06 2.94942e-05 0 0.000109415 0 0)
(9.80129e-06 3.36824e-05 -4.1759e-23 0.000120219 -1.07713e-22 2.91694e-39)
(1.12805e-05 3.74031e-05 4.66594e-23 0.000128655 1.18538e-22 3.05476e-39)
(1.26657e-05 4.05045e-05 3.92185e-25 0.000134189 9.87302e-25 1.70146e-43)
(1.40245e-05 4.30902e-05 0 0.000136934 0 0)
(1.52803e-05 4.48967e-05 0 0.000136095 0 0)
(1.64835e-05 4.59058e-05 3.01994e-23 0.000131454 7.14573e-23 5.35821e-40)
(1.76165e-05 4.61366e-05 -3.17546e-23 0.000123635 -7.28277e-23 5.39196e-40)
(1.86941e-05 4.56083e-05 0 0.000113151 0 0)
(1.97255e-05 4.43451e-05 1.15988e-22 0.000100717 2.48643e-22 4.70188e-39)
(2.07185e-05 4.23737e-05 -1.19573e-22 8.71693e-05 -2.46072e-22 4.69888e-39)
(2.16866e-05 3.97269e-05 0 7.33704e-05 0 0)
(2.2651e-05 3.64444e-05 -3.40966e-23 6.01296e-05 -6.33533e-23 2.60895e-40)
(2.36401e-05 3.2575e-05 3.48896e-23 4.81266e-05 6.08928e-23 2.63472e-40)
(2.46958e-05 2.81896e-05 0 3.788e-05 0 0)
(2.58516e-05 2.33582e-05 0 2.96954e-05 0 0)
(2.71539e-05 1.81327e-05 -5.15615e-25 2.35805e-05 -6.80106e-25 3.83941e-44)
(2.86134e-05 1.26275e-05 6.4215e-23 1.95627e-05 7.2985e-23 5.13633e-40)
(3.02041e-05 6.94613e-06 -6.61221e-23 1.74822e-05 -6.32642e-23 5.22205e-40)
(3.19182e-05 1.21294e-06 0 1.70686e-05 0 0)
(3.37282e-05 -4.45529e-06 0 1.79848e-05 0 0)
(3.55877e-05 -9.95544e-06 -9.66344e-25 1.98731e-05 -4.17329e-25 8.13044e-44)
(3.74503e-05 -1.51971e-05 0 2.23922e-05 0 0)
(3.93548e-05 -2.00978e-05 0 2.52412e-05 0 0)
(4.12352e-05 -2.47164e-05 0 2.82342e-05 0 0)
(1.69669e-06 8.41557e-06 0 4.46374e-05 0 0)
(2.84846e-06 1.25638e-05 0 5.85589e-05 0 0)
(4.19239e-06 1.69917e-05 0 7.22894e-05 0 0)
(5.6597e-06 2.15555e-05 -2.87915e-23 8.583e-05 -7.37688e-23 3.15425e-39)
(7.2127e-06 2.61272e-05 3.34746e-23 9.86723e-05 8.45609e-23 3.22869e-39)
(8.80604e-06 3.05458e-05 -3.9661e-23 0.00011026 -9.96773e-23 3.2376e-39)
(1.04087e-05 3.46702e-05 4.43772e-23 0.000120038 1.09477e-22 3.29878e-39)
(1.19984e-05 3.83734e-05 -7.75966e-25 0.000127491 -1.88915e-24 7.66034e-43)
(1.35496e-05 4.15404e-05 0 0.000132197 0 0)
(1.51209e-05 4.42582e-05 0 0.000134314 0 0)
(1.66379e-05 4.6233e-05 9.66121e-25 0.000132936 2.17686e-24 6.34061e-43)
(1.81522e-05 4.74914e-05 0 0.000128178 0 0)
(1.96218e-05 4.79979e-05 0 0.000120547 0 0)
(2.10471e-05 4.77485e-05 2.8313e-25 0.000110522 5.75982e-25 3.06965e-44)
(2.24148e-05 4.6738e-05 2.09245e-22 9.87534e-05 4.10269e-22 1.33765e-38)
(2.37104e-05 4.49695e-05 -2.16575e-22 8.5981e-05 -4.07106e-22 1.33763e-38)
(2.49265e-05 4.24597e-05 -3.05246e-25 7.29642e-05 -5.48593e-25 2.19954e-44)
(2.60687e-05 3.92425e-05 0 6.0412e-05 0 0)
(2.71584e-05 3.53715e-05 0 4.8927e-05 0 0)
(2.82344e-05 3.09228e-05 -1.22448e-24 3.89692e-05 -1.83228e-24 2.39255e-43)
(2.93427e-05 2.59858e-05 0 3.08286e-05 0 0)
(3.05276e-05 2.06646e-05 0 2.46428e-05 0 0)
(3.18125e-05 1.50506e-05 1.16754e-24 2.03763e-05 1.27653e-24 1.54436e-43)
(3.32014e-05 9.26296e-06 7.33828e-23 1.79233e-05 6.82889e-23 5.38105e-40)
(3.4694e-05 3.42616e-06 -7.39882e-23 1.70738e-05 -5.689e-23 5.28126e-40)
(3.62768e-05 -2.34297e-06 7.35976e-23 1.75478e-05 4.457e-23 4.52891e-40)
(3.79225e-05 -7.94022e-06 -7.43763e-23 1.90328e-05 -3.29923e-23 4.41623e-40)
(3.95918e-05 -1.32736e-05 0 2.12141e-05 0 0)
(4.12611e-05 -1.82611e-05 0 2.38014e-05 0 0)
(4.26441e-05 -2.30388e-05 0 2.67048e-05 0 0)
(2.16777e-06 1.00562e-05 0 4.94954e-05 0 0)
(3.30451e-06 1.40524e-05 4.29804e-23 6.28532e-05 1.11989e-22 1.46361e-38)
(4.68402e-06 1.84273e-05 -2.63334e-23 7.58612e-05 -6.66263e-23 3.86313e-39)
(6.21101e-06 2.29585e-05 -6.45268e-23 8.85369e-05 -1.61746e-22 1.52217e-38)
(7.83906e-06 2.74914e-05 7.52871e-23 0.000100396 1.85443e-22 1.50347e-38)
(9.53883e-06 3.18911e-05 -4.23231e-23 0.000110925 -1.01949e-22 3.65128e-39)
(1.12951e-05 3.60416e-05 0 0.000119626 0 0)
(1.3086e-05 3.98171e-05 -1.64109e-24 0.000126055 -3.74593e-24 3.24296e-42)
(1.49333e-05 4.31833e-05 0 0.000129957 0 0)
(1.68286e-05 4.61001e-05 0 0.000131365 0 0)
(1.87537e-05 4.83452e-05 -3.66245e-23 0.000129478 -7.59046e-23 7.69764e-40)
(2.07235e-05 4.99239e-05 3.70882e-23 0.00012462 7.3509e-23 6.86467e-40)
(2.26839e-05 5.07663e-05 0 0.000117189 0 0)
(2.46129e-05 5.08419e-05 -3.24995e-25 0.000107641 -5.9575e-25 3.38345e-44)
(2.64684e-05 5.01163e-05 3.22839e-22 9.65569e-05 5.6834e-22 2.68429e-38)
(2.82069e-05 4.85687e-05 -3.35515e-22 8.45861e-05 -5.65303e-22 2.68418e-38)
(2.97952e-05 4.61994e-05 3.53962e-25 7.23852e-05 5.70833e-25 2.42434e-44)
(3.12194e-05 4.30356e-05 0 6.05666e-05 0 0)
(3.24905e-05 3.91337e-05 4.53529e-23 4.96566e-05 6.5858e-23 2.92389e-40)
(3.36451e-05 3.45793e-05 -4.29388e-23 4.0067e-05 -5.85794e-23 2.55673e-40)
(3.47379e-05 2.94801e-05 -1.40812e-24 3.20758e-05 -1.77278e-24 2.35826e-43)
(3.58237e-05 2.39537e-05 0 2.58268e-05 0 0)
(3.69429e-05 1.81187e-05 2.73587e-24 2.1337e-05 2.79059e-24 7.28494e-43)
(3.81223e-05 1.2105e-05 0 1.85345e-05 0 0)
(3.93764e-05 6.04273e-06 -8.3073e-23 1.72597e-05 -6.22789e-23 5.44513e-40)
(4.07049e-05 5.22155e-08 1.62248e-22 1.72852e-05 9.84857e-23 1.97199e-39)
(4.20996e-05 -5.75958e-06 -1.59442e-22 1.83444e-05 -7.39088e-23 1.76161e-39)
(4.3546e-05 -1.12973e-05 -7.71523e-23 2.01557e-05 -2.49869e-23 3.62941e-40)
(4.49925e-05 -1.64787e-05 1.58668e-22 2.2448e-05 2.96746e-23 1.52922e-39)
(4.57789e-05 -2.1525e-05 0 2.5212e-05 0 0)
(2.68425e-06 1.17644e-05 0 5.42613e-05 0 0)
(3.8555e-06 1.57156e-05 -4.8468e-23 6.69959e-05 -1.25174e-22 1.68321e-38)
(5.31154e-06 2.00876e-05 5.73944e-23 7.91884e-05 1.43567e-22 1.62704e-38)
(6.93719e-06 2.46138e-05 0 9.0884e-05 0 0)
(8.69517e-06 2.9152e-05 0 0.000101651 0 0)
(1.05745e-05 3.35938e-05 -1.4229e-24 0.000111029 -3.24216e-24 3.74845e-42)
(1.25719e-05 3.78361e-05 0 0.000118587 0 0)
(1.46706e-05 4.17573e-05 1.8307e-24 0.000123946 3.88756e-24 3.56188e-42)
(1.69201e-05 4.53726e-05 -3.2199e-23 0.000127039 -6.54807e-23 8.35917e-40)
(1.92754e-05 4.85416e-05 3.55469e-23 0.000127687 6.89977e-23 8.48577e-40)
(2.1755e-05 5.11085e-05 3.99323e-23 0.000125349 7.44283e-23 7.87129e-40)
(2.43313e-05 5.30364e-05 -4.19517e-23 0.000120419 -7.42312e-23 7.46303e-40)
(2.69436e-05 5.42418e-05 -1.39154e-24 0.000113237 -2.35707e-24 6.42298e-43)
(2.95385e-05 5.46651e-05 7.36929e-25 0.000104227 1.19562e-24 1.46912e-43)
(3.20393e-05 5.42461e-05 4.62425e-22 9.39006e-05 7.21054e-22 4.543e-38)
(3.43667e-05 5.29418e-05 -4.82279e-22 8.28139e-05 -7.1933e-22 4.54278e-38)
(3.64557e-05 5.07359e-05 -8.199e-25 7.15199e-05 -1.17334e-24 1.07534e-43)
(3.82687e-05 4.76461e-05 1.66365e-24 6.05319e-05 2.27531e-24 3.82926e-43)
(3.9804e-05 4.37274e-05 -5.31551e-23 5.02954e-05 -6.90593e-23 3.26579e-40)
(4.10957e-05 3.90709e-05 5.1959e-23 4.11692e-05 6.38236e-23 3.04181e-40)
(4.22061e-05 3.37956e-05 5.39651e-23 3.34105e-05 6.16685e-23 2.70118e-40)
(4.32063e-05 2.80353e-05 -5.23125e-23 2.71697e-05 -5.518e-23 2.50043e-40)
(4.41598e-05 2.19307e-05 -3.16877e-24 2.25002e-05 -3.02167e-24 8.00103e-43)
(4.51162e-05 1.56263e-05 0 1.93706e-05 0 0)
(4.61087e-05 9.26242e-06 3.07274e-24 1.76712e-05 2.20947e-24 6.44614e-43)
(4.71515e-05 2.96703e-06 0 1.7228e-05 0 0)
(4.82523e-05 -3.14597e-06 0 1.78227e-05 0 0)
(4.94246e-05 -8.97348e-06 1.80942e-22 1.92132e-05 6.35553e-23 1.78109e-39)
(5.06155e-05 -1.44325e-05 -1.75161e-22 2.11516e-05 -4.0192e-23 1.62647e-39)
(5.07496e-05 -1.98804e-05 0 2.36978e-05 0 0)
(3.30515e-06 1.36398e-05 -4.26316e-23 5.87763e-05 -1.05457e-22 1.65567e-38)
(4.56834e-06 1.76224e-05 7.92337e-23 7.07028e-05 1.99539e-22 4.07987e-38)
(6.14639e-06 2.20211e-05 -3.13795e-23 8.1941e-05 -7.57896e-23 4.40117e-39)
(7.92499e-06 2.65752e-05 0 9.25447e-05 0 0)
(9.88315e-06 3.11642e-05 -4.37725e-23 0.000102136 -9.7429e-23 4.17031e-39)
(1.20265e-05 3.56963e-05 4.88269e-23 0.000110304 1.0344e-22 4.01238e-39)
(1.43622e-05 4.0075e-05 -5.56323e-23 0.000116683 -1.12742e-22 3.71139e-39)
(1.68804e-05 4.41841e-05 6.44372e-23 0.000120977 1.23415e-22 4.03261e-39)
(1.9656e-05 4.80722e-05 0 0.000123253 0 0)
(2.26173e-05 5.15131e-05 2.47909e-24 0.000123149 4.28703e-24 3.46541e-42)
(2.58038e-05 5.44118e-05 -4.38702e-23 0.000120432 -7.24223e-23 8.05093e-40)
(2.91508e-05 5.66919e-05 2.39635e-23 0.000115484 3.71136e-23 2.20511e-40)
(3.25851e-05 5.82611e-05 3.30188e-24 0.000108617 4.68727e-24 5.29608e-42)
(3.6016e-05 5.90351e-05 2.65123e-23 0.000100214 3.77048e-23 1.62724e-40)
(3.93253e-05 5.89324e-05 6.32332e-22 9.07193e-05 8.66846e-22 6.95777e-38)
(4.23915e-05 5.78906e-05 -6.61244e-22 8.0596e-05 -8.67913e-22 6.95714e-38)
(4.51119e-05 5.58767e-05 3.15046e-23 7.02953e-05 3.98348e-23 1.22463e-40)
(4.74209e-05 5.28963e-05 -4.18043e-24 6.02319e-05 -5.07394e-24 3.64791e-42)
(4.93015e-05 4.89978e-05 3.0886e-23 5.07685e-05 3.57172e-23 8.09457e-41)
(5.07861e-05 4.4272e-05 -6.29494e-23 4.22061e-05 -6.93828e-23 3.59711e-40)
(5.19459e-05 3.8844e-05 -3.88626e-24 3.47751e-05 -4.0196e-24 1.18073e-42)
(5.28717e-05 3.28605e-05 0 2.86288e-05 0 0)
(5.36533e-05 2.64788e-05 1.1885e-22 2.38456e-05 1.04382e-22 8.89268e-40)
(5.43669e-05 1.98585e-05 -1.21638e-22 2.04328e-05 -9.62343e-23 9.26318e-40)
(5.50685e-05 1.31528e-05 1.16907e-22 1.83292e-05 8.0726e-23 7.47815e-40)
(5.57901e-05 6.50019e-06 -1.12255e-22 1.7413e-05 -6.6185e-23 6.84908e-40)
(5.65556e-05 2.53117e-08 -6.83777e-24 1.75168e-05 -3.26412e-24 2.31582e-42)
(5.74037e-05 -6.15585e-06 -1.04767e-22 1.84423e-05 -3.91112e-23 5.03182e-40)
(5.82928e-05 -1.19527e-05 3.04411e-22 1.9971e-05 8.0163e-23 4.04778e-39)
(5.77142e-05 -1.79057e-05 -2.12545e-22 2.22e-05 -3.09039e-23 1.95635e-39)
(4.0941e-06 1.57482e-05 2.29304e-23 6.28271e-05 5.52146e-23 4.19541e-39)
(5.51537e-06 1.98217e-05 -3.04682e-23 7.37554e-05 -7.3229e-23 5.3561e-39)
(7.27407e-06 2.42779e-05 -3.68527e-23 8.39223e-05 -8.41965e-23 5.21194e-39)
(9.27549e-06 2.88934e-05 4.37762e-23 9.33496e-05 9.44574e-23 5.35384e-39)
(1.15178e-05 3.35677e-05 -4.83506e-23 0.000101699 -9.89994e-23 4.51333e-39)
(1.40217e-05 3.82183e-05 5.94089e-23 0.000108618 1.1435e-22 5.21818e-39)
(1.68043e-05 4.27519e-05 1.94648e-24 0.000113809 3.49367e-24 4.25245e-42)
(1.98719e-05 4.70689e-05 0 0.000117068 0 0)
(2.33089e-05 5.12176e-05 -4.05809e-23 0.000118525 -6.56265e-23 9.87481e-40)
(2.70354e-05 5.49209e-05 -2.79886e-24 0.000117719 -4.769e-24 9.42863e-43)
(3.1092e-05 5.81315e-05 -3.04211e-24 0.000114705 -4.92039e-24 7.93643e-43)
(3.53845e-05 6.07431e-05 5.63029e-23 0.000109811 7.66092e-23 9.43542e-40)
(3.98183e-05 6.26567e-05 2.75734e-23 0.000103329 3.60332e-23 1.65275e-40)
(4.42593e-05 6.37708e-05 -4.72128e-23 9.56024e-05 -5.87879e-23 4.13757e-40)
(4.85414e-05 6.39874e-05 8.50499e-22 8.70065e-05 1.02172e-21 1.03527e-37)
(5.2495e-05 6.32273e-05 -8.56263e-22 7.7916e-05 -9.87396e-22 9.56284e-38)
(5.59742e-05 6.1441e-05 -5.34611e-23 6.86832e-05 -5.96392e-23 2.95815e-40)
(5.88818e-05 5.86188e-05 4.10412e-23 5.96272e-05 4.41409e-23 1.58729e-40)
(6.11843e-05 5.47979e-05 7.30528e-23 5.1029e-05 7.55003e-23 4.03008e-40)
(6.29124e-05 5.00624e-05 3.89138e-24 4.31296e-05 3.65063e-24 5.63168e-43)
(6.41493e-05 4.45373e-05 3.75592e-24 3.61268e-05 3.27531e-24 5.25198e-43)
(6.50079e-05 3.83759e-05 -7.20764e-23 3.01692e-05 -6.35476e-23 3.1217e-40)
(6.56074e-05 3.17471e-05 0 2.53529e-05 0 0)
(6.60544e-05 2.48239e-05 -4.3642e-24 2.17186e-05 -3.19966e-24 9.37958e-43)
(6.64322e-05 1.77727e-05 1.24429e-22 1.92501e-05 8.1945e-23 6.92629e-40)
(6.67942e-05 1.07442e-05 -1.3104e-22 1.78752e-05 -7.53475e-23 7.7043e-40)
(6.71831e-05 3.87529e-06 1.25128e-22 1.74783e-05 6.04896e-23 6.29307e-40)
(6.76618e-05 -2.7001e-06 -1.15966e-22 1.79068e-05 -4.53722e-23 5.3944e-40)
(6.82052e-05 -8.87854e-06 -1.12428e-22 1.89778e-05 -3.28655e-23 4.5333e-40)
(6.68601e-05 -1.54192e-05 1.26262e-22 2.07901e-05 2.37813e-23 5.83468e-40)
(5.12947e-06 1.81432e-05 0 6.62087e-05 0 0)
(6.78676e-06 2.23525e-05 -3.00147e-23 7.59793e-05 -6.72754e-23 4.38724e-39)
(8.79785e-06 2.68897e-05 4.35119e-23 8.49854e-05 9.12868e-23 6.51924e-39)
(1.11061e-05 3.15883e-05 -4.88835e-23 9.31697e-05 -9.63046e-23 5.60389e-39)
(1.37298e-05 3.63627e-05 5.39208e-23 0.000100231 9.89388e-23 5.09885e-39)
(1.67046e-05 4.11361e-05 -5.86882e-23 0.000105882 -1.01019e-22 4.20788e-39)
(2.00552e-05 4.58145e-05 6.71816e-23 0.000109895 1.07264e-22 4.32066e-39)
(2.38287e-05 5.03447e-05 5.04511e-24 0.000112178 7.5215e-24 1.80678e-41)
(2.80672e-05 5.46974e-05 2.84969e-24 0.00011281 3.99001e-24 4.33848e-42)
(3.27321e-05 5.86324e-05 3.1899e-24 0.000111396 4.20552e-24 4.13209e-42)
(3.78321e-05 6.21122e-05 3.5795e-24 0.000108176 4.47855e-24 3.91398e-42)
(4.32524e-05 6.50167e-05 -1.95833e-24 0.000103417 -2.32473e-24 9.14291e-43)
(4.88662e-05 6.72432e-05 3.58118e-23 9.73936e-05 4.06898e-23 2.34127e-40)
(5.44903e-05 6.868e-05 -1.81049e-23 9.04105e-05 -1.94624e-23 5.69237e-41)
(5.99048e-05 6.92184e-05 1.05063e-21 8.27754e-05 1.10586e-21 1.30357e-37)
(6.48864e-05 6.87645e-05 -1.14156e-21 7.47776e-05 -1.158e-21 1.40009e-37)
(6.92421e-05 6.72518e-05 -2.05034e-23 6.66764e-05 -2.02946e-23 3.13628e-41)
(7.28408e-05 6.46524e-05 3.70065e-23 5.87e-05 3.54051e-23 1.07192e-40)
(7.56317e-05 6.09867e-05 -2.66784e-24 5.10501e-05 -2.46987e-24 4.592e-43)
(7.76454e-05 5.63258e-05 -1.06767e-23 4.39073e-05 -9.51994e-24 6.52022e-42)
(7.89792e-05 5.07875e-05 -5.31695e-24 3.74326e-05 -4.52784e-24 1.45315e-42)
(7.9772e-05 4.4525e-05 -5.24932e-24 3.17626e-05 -4.22977e-24 1.29157e-42)
(8.0175e-05 3.77136e-05 -1.03071e-23 2.70036e-05 -7.76222e-24 4.59387e-42)
(8.03288e-05 3.05362e-05 1.6924e-22 2.32236e-05 1.17511e-22 1.12196e-39)
(8.03476e-05 2.31712e-05 -1.66861e-22 2.04458e-05 -1.05337e-22 1.09083e-39)
(8.03096e-05 1.57816e-05 1.50518e-22 1.86448e-05 8.38871e-23 7.89798e-40)
(8.02807e-05 8.51782e-06 -1.38952e-22 1.77545e-05 -6.71073e-23 6.77372e-40)
(8.03492e-05 1.53331e-06 1.23696e-22 1.76695e-05 4.97787e-23 4.82371e-40)
(8.05056e-05 -5.05064e-06 -1.47856e-22 1.82471e-05 -4.77892e-23 6.9047e-40)
(7.83543e-05 -1.22376e-05 0 1.95538e-05 0 0)
(6.50848e-06 2.08592e-05 0 6.87278e-05 0 0)
(8.49366e-06 2.52285e-05 -2.23251e-24 7.72102e-05 -4.51578e-24 2.14671e-41)
(1.08424e-05 2.98558e-05 3.80834e-23 8.49891e-05 7.19013e-23 4.12877e-39)
(1.35549e-05 3.46385e-05 1.50467e-27 9.18827e-05 2.82103e-25 2.19511e-42)
(1.66714e-05 3.95037e-05 -6.05889e-23 9.76363e-05 -9.78445e-23 5.53622e-39)
(2.02418e-05 4.4378e-05 -4.43701e-24 0.000102026 -6.67739e-24 2.09056e-41)
(2.42981e-05 4.9166e-05 -4.99168e-24 0.000104892 -6.89242e-24 2.03399e-41)
(2.89413e-05 5.38773e-05 4.0135e-23 0.000106274 5.20351e-23 9.34424e-40)
(3.41434e-05 5.83658e-05 -5.53116e-23 0.000106116 -6.66951e-23 1.41126e-39)
(3.99272e-05 6.24819e-05 -5.07854e-26 0.000104223 -8.4838e-26 1.01273e-46)
(4.62496e-05 6.61682e-05 3.23185e-23 0.000100884 3.49285e-23 2.63176e-40)
(5.29817e-05 6.93146e-05 -3.54259e-23 9.63435e-05 -3.60729e-23 2.66345e-40)
(5.99532e-05 7.18166e-05 1.68099e-23 9.0855e-05 1.65883e-23 4.31635e-41)
(6.69258e-05 7.35592e-05 -2.06138e-23 8.46786e-05 -1.94505e-23 5.7093e-41)
(7.36206e-05 7.44268e-05 1.33951e-21 7.80574e-05 1.23628e-21 1.77964e-37)
(7.9756e-05 7.43131e-05 -1.40469e-21 7.12007e-05 -1.25632e-21 1.77967e-37)
(8.50895e-05 7.31331e-05 -2.36698e-23 6.42817e-05 -2.07502e-23 3.84224e-41)
(8.94554e-05 7.08374e-05 2.73373e-23 5.74438e-05 2.33692e-23 4.80537e-41)
(9.27859e-05 6.74236e-05 -4.59677e-23 5.08138e-05 -3.82724e-23 1.0753e-40)
(9.51135e-05 6.29433e-05 6.17909e-23 4.45126e-05 5.00032e-23 1.87532e-40)
(9.65533e-05 5.75e-05 -3.78834e-26 3.86612e-05 -2.01165e-26 5.46554e-47)
(9.72727e-05 5.12402e-05 -9.65347e-23 3.33786e-05 -7.16633e-23 3.4716e-40)
(9.74586e-05 4.43397e-05 1.07418e-22 2.87738e-05 7.57438e-23 4.2777e-40)
(9.72887e-05 3.69878e-05 1.16917e-23 2.49351e-05 7.64403e-24 4.53221e-42)
(9.69112e-05 2.93727e-05 1.1245e-23 2.19187e-05 6.7985e-24 3.9811e-42)
(9.64325e-05 2.16684e-05 -1.74673e-22 1.97415e-05 -9.47068e-23 8.79771e-40)
(9.5945e-05 1.40404e-05 2.34489e-24 1.8383e-05 1.40166e-24 2.53451e-42)
(9.55654e-05 6.66075e-06 1.86533e-22 1.77862e-05 7.71155e-23 9.59642e-40)
(9.52984e-05 -3.29497e-07 0 1.78504e-05 0 0)
(9.23215e-05 -8.18931e-06 0 1.85808e-05 0 0)
(8.35122e-06 2.39025e-05 0 7.02013e-05 0 0)
(1.07711e-05 2.84292e-05 4.35445e-23 7.72988e-05 7.85022e-23 6.62394e-39)
(1.35552e-05 3.31323e-05 5.43601e-26 8.38063e-05 3.33521e-25 2.02991e-42)
(1.67826e-05 3.79753e-05 -2.40857e-26 8.93906e-05 2.50317e-25 2.43948e-42)
(2.05179e-05 4.28973e-05 -1.32337e-22 9.38454e-05 -1.84645e-22 2.21318e-38)
(2.48236e-05 4.78262e-05 7.92665e-23 9.70145e-05 1.0145e-22 5.94216e-39)
(2.97458e-05 5.2676e-05 5.72625e-24 9.88084e-05 6.81369e-24 2.22189e-41)
(3.54103e-05 5.74827e-05 0 9.93577e-05 0 0)
(4.17604e-05 6.20356e-05 -5.51284e-23 9.84987e-05 -5.71765e-23 1.12866e-39)
(4.88438e-05 6.62589e-05 6.16184e-23 9.62502e-05 5.94014e-23 1.15503e-39)
(5.65722e-05 7.0084e-05 -3.65388e-23 9.28967e-05 -3.38367e-23 2.88629e-40)
(6.47955e-05 7.34168e-05 -8.71047e-26 8.86644e-05 -4.95921e-25 5.77596e-43)
(7.32923e-05 7.61578e-05 4.34658e-23 8.3783e-05 3.67437e-23 2.72069e-40)
(8.17641e-05 7.81951e-05 -1.45567e-24 7.84687e-05 -1.20169e-24 2.34154e-43)
(8.98681e-05 7.94094e-05 1.64165e-21 7.29024e-05 1.33113e-21 2.27441e-37)
(9.72616e-05 7.96827e-05 -1.72161e-21 6.72209e-05 -1.36203e-21 2.2765e-37)
(0.000103652 7.89097e-05 1.68706e-24 6.15188e-05 1.31645e-24 1.73445e-43)
(0.000108838 7.70149e-05 5.53235e-23 5.58631e-05 4.24821e-23 1.51057e-40)
(0.000112738 7.39676e-05 -1.53147e-25 5.03104e-05 -1.77207e-25 5.87061e-43)
(0.00011539 6.97929e-05 -7.07152e-23 4.49242e-05 -5.21662e-23 2.05942e-40)
(0.000116929 6.45733e-05 1.19259e-22 3.9784e-05 8.52109e-23 4.85692e-40)
(0.000117556 5.84422e-05 -1.11752e-22 3.49861e-05 -7.72896e-23 4.21271e-40)
(0.000117495 5.15705e-05 0 3.06356e-05 0 0)
(0.000116965 4.41496e-05 -1.3306e-23 2.68334e-05 -8.28449e-24 4.95115e-42)
(0.000116152 3.63751e-05 2.07454e-22 2.36619e-05 1.19555e-22 1.09012e-39)
(0.000115192 2.8431e-05 -4.17654e-22 2.11743e-05 -2.21062e-22 4.32199e-39)
(0.000114207 2.04975e-05 2.46236e-24 1.93918e-05 1.5237e-24 2.79043e-42)
(0.000113343 1.27653e-05 -9.58403e-24 1.83036e-05 -3.72151e-24 1.61005e-42)
(0.000112618 5.39341e-06 1.84795e-22 1.78527e-05 6.68112e-23 7.52388e-40)
(0.000108819 -3.12799e-06 0 1.79607e-05 0 0)
(1.08025e-05 2.72402e-05 4.81403e-24 7.04674e-05 8.09809e-24 1.05206e-40)
(1.37781e-05 3.18886e-05 0 7.61245e-05 0 0)
(1.71077e-05 3.66284e-05 3.51955e-24 8.13433e-05 5.00686e-24 2.53205e-41)
(2.09731e-05 4.14828e-05 -6.16143e-23 8.56318e-05 -7.97078e-23 5.569e-39)
(2.54648e-05 4.64006e-05 7.67655e-23 8.88325e-05 9.01126e-23 6.5576e-39)
(3.06547e-05 5.13114e-05 -8.91733e-23 9.08557e-05 -9.66718e-23 6.18971e-39)
(3.66161e-05 5.61556e-05 1.02038e-22 9.16894e-05 1.01013e-22 6.36099e-39)
(4.34603e-05 6.09489e-05 5.82791e-23 9.14775e-05 5.42238e-23 1.46615e-39)
(5.11453e-05 6.54804e-05 -1.40125e-22 9.00447e-05 -1.2169e-22 6.57138e-39)
(5.97056e-05 6.97269e-05 -4.82654e-24 8.75751e-05 -4.78141e-24 1.44634e-42)
(6.90179e-05 7.36197e-05 7.66588e-23 8.43155e-05 5.96404e-23 1.20341e-39)
(7.88993e-05 7.7085e-05 -4.50566e-23 8.04797e-05 -3.42807e-23 2.96023e-40)
(8.90715e-05 8.00359e-05 2.42736e-23 7.6271e-05 1.75175e-23 8.14184e-41)
(9.9171e-05 8.2368e-05 4.10029e-23 7.18618e-05 2.95143e-23 1.63029e-40)
(0.000108787 8.39608e-05 1.96001e-21 6.73767e-05 1.39941e-21 2.80179e-37)
(0.000117515 8.46837e-05 -2.08111e-21 6.28873e-05 -1.46151e-21 2.87965e-37)
(0.000125011 8.44085e-05 4.38039e-23 5.84196e-05 3.06107e-23 9.88776e-41)
(0.000131044 8.30286e-05 3.13358e-23 5.39724e-05 2.17176e-23 3.71744e-41)
(0.000135519 8.04789e-05 -6.36767e-23 4.9539e-05 -4.36832e-23 1.6381e-40)
(0.000138482 7.67514e-05 1.44093e-22 4.51282e-05 9.71757e-23 6.7085e-40)
(0.000140095 7.19012e-05 7.57494e-24 4.07774e-05 4.61538e-24 9.07029e-43)
(0.000140593 6.60428e-05 -2.37686e-22 3.65563e-05 -1.52882e-22 1.54772e-39)
(0.000140245 5.93369e-05 1.25173e-22 3.25597e-05 7.77812e-23 4.10602e-40)
(0.000139312 5.19736e-05 2.4339e-22 2.8894e-05 1.43305e-22 1.34147e-39)
(0.000138018 4.41526e-05 -2.39195e-22 2.56609e-05 -1.33388e-22 1.30456e-39)
(0.000136534 3.60672e-05 2.30014e-22 2.29426e-05 1.18579e-22 1.07149e-39)
(0.000135013 2.7911e-05 -2.395e-22 2.07981e-05 -1.13385e-22 1.16884e-39)
(0.000133631 1.98937e-05 1.36605e-23 1.92581e-05 5.77035e-24 3.48201e-42)
(0.000132418 1.21897e-05 0 1.83086e-05 0 0)
(0.000127823 3.0574e-06 -2.67726e-23 1.77754e-05 -8.05754e-24 1.20891e-41)
(1.40328e-05 3.07913e-05 -5.60955e-24 6.93979e-05 -8.21523e-24 1.13779e-40)
(1.76976e-05 3.54911e-05 5.58803e-23 7.36055e-05 7.31778e-23 7.81076e-39)
(2.16929e-05 4.02021e-05 -6.27817e-23 7.75541e-05 -7.39786e-23 7.18138e-39)
(2.63289e-05 4.49926e-05 -4.66426e-24 8.05965e-05 -5.036e-24 2.74824e-41)