/*--------------------------------*- C++ -*----------------------------------*\
  =========                 |
  \\      /  F ield         | OpenFOAM: The Open Source CFD Toolbox
   \\    /   O peration     | Website:  https://openfoam.org
    \\  /    A nd           | Version:  12
     \\/     M anipulation  |
\*---------------------------------------------------------------------------*/
FoamFile
{
    format      ascii;
    class       volScalarField;
    location    "180";
    object      p;
}
// * * * * * * * * * * * * * * * * * * * * * * * * * * * * * * * * * * * * * //

dimensions      [0 2 -2 0 0 0 0];

internalField   nonuniform List<scalar> 
6750
(
0.0215795
0.0215575
0.021528
0.0213645
0.020336
0.0230976
0.0230611
0.0229337
0.0226678
0.0223085
0.0248903
0.0248311
0.0247004
0.0245024
0.0243494
0.0267707
0.0266768
0.0265525
0.0264121
0.0263352
0.0286377
0.0284997
0.0283657
0.0282531
0.0282144
0.0304114
0.030225
0.0300701
0.0299674
0.0299461
0.0320434
0.0318073
0.0316277
0.0315279
0.031515
0.0335045
0.0332193
0.0330151
0.032916
0.0329083
0.0347762
0.0344444
0.0342175
0.0341192
0.0341151
0.035848
0.0354737
0.0352272
0.0351303
0.0351288
0.0367167
0.0363052
0.0360431
0.0359481
0.0359485
0.0373854
0.0369431
0.0366697
0.0365771
0.0365786
0.0378635
0.0373965
0.037117
0.0370267
0.0370285
0.0381652
0.0376792
0.0373999
0.0373108
0.0373119
0.0383035
0.0378118
0.0375378
0.0374462
0.0374452
0.0383034
0.0378117
0.0375378
0.0374462
0.0374451
0.0381651
0.037679
0.0373998
0.0373107
0.0373117
0.0378632
0.0373962
0.0371167
0.0370264
0.0370282
0.037385
0.0369426
0.0366693
0.0365766
0.0365781
0.0367161
0.0363046
0.0360425
0.0359475
0.0359479
0.0358473
0.035473
0.0352265
0.0351296
0.0351281
0.0347753
0.0344435
0.0342166
0.0341183
0.0341142
0.0335035
0.0332183
0.0330141
0.032915
0.0329073
0.0320423
0.0318061
0.0316266
0.0315267
0.0315138
0.0304101
0.0302237
0.0300688
0.0299661
0.0299447
0.0286362
0.0284983
0.0283642
0.0282516
0.0282129
0.0267691
0.0266751
0.0265508
0.0264104
0.0263335
0.0248884
0.0248292
0.0246986
0.0245005
0.0243475
0.0230956
0.0230591
0.0229317
0.0226658
0.0223064
0.0215773
0.0215553
0.0215259
0.0213624
0.0203338
0.0141567
0.0147493
0.0162176
0.0173026
0.018089
0.0187138
0.0192035
0.0195692
0.019839
0.0200232
0.0200848
0.0200981
0.020035
0.0198916
0.0196666
0.0193564
0.0189579
0.0184742
0.0179085
0.0172604
0.0165242
0.0158068
0.0150509
0.0142719
0.0134901
0.0127183
0.0119661
0.0112479
0.0105735
0.00989115
0.0180665
0.0188622
0.0196619
0.0200627
0.0202915
0.0204327
0.0204884
0.0204677
0.0203995
0.020281
0.0200709
0.0198834
0.0196776
0.0194562
0.019218
0.0189538
0.0186511
0.0182991
0.0178869
0.0174117
0.0168921
0.0162574
0.0155923
0.0148871
0.0141497
0.0133916
0.012621
0.0118521
0.0111247
0.0104196
0.020547
0.0207306
0.0210455
0.0211993
0.0212749
0.0212829
0.0212114
0.021071
0.020883
0.0206118
0.0202619
0.0199263
0.0195627
0.0191821
0.0187904
0.0183875
0.0179702
0.0175331
0.0170707
0.0165782
0.0160545
0.015499
0.0149183
0.0143117
0.0136839
0.013041
0.0123841
0.0117239
0.0111471
0.0107307
0.0219898
0.0217656
0.0218943
0.0219771
0.021986
0.0219185
0.0217695
0.0215558
0.0212863
0.0208918
0.0204453
0.0199856
0.0194836
0.0189562
0.0184151
0.0178682
0.0173208
0.0167759
0.0162344
0.015695
0.0151559
0.0146211
0.0140873
0.0135514
0.0130132
0.0124732
0.011924
0.0113685
0.0109358
0.010855
0.0230802
0.0227081
0.0227546
0.0227666
0.0226921
0.0225372
0.0223021
0.0220024
0.0216359
0.0211259
0.0205832
0.0200033
0.019376
0.0187212
0.0180544
0.0173886
0.0167352
0.0161023
0.015495
0.0149151
0.0143621
0.013835
0.0133307
0.0128442
0.0123718
0.0119098
0.0114445
0.010969
0.0106449
0.0108687
0.0240272
0.023616
0.0235977
0.0235295
0.0233691
0.0231277
0.0228063
0.0224171
0.0219433
0.021328
0.0206854
0.0199898
0.0192456
0.0184749
0.017696
0.0169261
0.0161805
0.0154709
0.0148052
0.014187
0.0136164
0.0130908
0.0126057
0.0121548
0.011732
0.011331
0.010933
0.0105237
0.01029
0.0107868
0.024865
0.0244599
0.0243835
0.0242386
0.0239994
0.0236771
0.023274
0.0227983
0.0222119
0.0215029
0.0207602
0.0199548
0.0191008
0.0182218
0.0173392
0.0164733
0.0156424
0.0148611
0.0141392
0.0134817
0.0128892
0.0123585
0.011884
0.0114581
0.0110731
0.0107205
0.0103774
0.0100243
0.00987073
0.0106094
0.025614
0.0252451
0.0251182
0.0249017
0.0245883
0.0241883
0.0237072
0.023147
0.0224476
0.0216548
0.0208121
0.0199017
0.0189437
0.0179629
0.0169831
0.0160273
0.0151163
0.0142668
0.0134902
0.0127926
0.0121749
0.0116338
0.0111627
0.0107529
0.0103958
0.010081
0.00978188
0.00947573
0.00939324
0.01034
0.0262964
0.025985
0.0258139
0.0255286
0.0251432
0.0246682
0.0241116
0.0234625
0.0226589
0.021785
0.0208434
0.0198321
0.0187749
0.0176976
0.0166259
0.0155852
0.0145983
0.0136835
0.0128536
0.0121153
0.01147
0.010914
0.0104404
0.0100396
0.00970194
0.00941582
0.00915117
0.00888374
0.00886426
0.00998477
0.0269289
0.0266898
0.026479
0.0261263
0.0256707
0.0251243
0.0244916
0.0237456
0.0228522
0.0218938
0.0208557
0.0197476
0.018595
0.0174251
0.0162655
0.0151436
0.0140838
0.0131058
0.0122233
0.0114438
0.0107687
0.0101944
0.00971336
0.00931551
0.00899042
0.00872525
0.00848694
0.00825119
0.00828794
0.00954967
0.0275241
0.0273671
0.0271204
0.0267007
0.0261753
0.0255593
0.0248502
0.0240034
0.0230305
0.0219846
0.020852
0.0196496
0.0184044
0.0171446
0.0159
0.0146994
0.0135686
0.0125285
0.0115936
0.0107719
0.0100651
0.00946931
0.00897668
0.00857669
0.00825834
0.00800758
0.00778872
0.00757865
0.00766596
0.00903988
0.028092
0.0280245
0.0277446
0.0272575
0.0266622
0.0259789
0.0251899
0.0242437
0.0231958
0.0220604
0.0208343
0.0195394
0.0182031
0.0168553
0.0155272
0.0142493
0.0130484
0.0119466
0.0109589
0.0100938
0.00935305
0.00873283
0.00822489
0.00781832
0.00750166
0.0072597
0.00705436
0.00686488
0.00699788
0.00845905
0.0286426
0.028669
0.0283588
0.0278046
0.0271407
0.0263858
0.0255095
0.0244761
0.0233497
0.0221234
0.0208046
0.0194177
0.0179911
0.016556
0.015145
0.01379
0.0125191
0.0113549
0.0103134
0.00940318
0.00862624
0.00797863
0.00745186
0.00703468
0.00671522
0.0064771
0.00628009
0.00610677
0.00628127
0.00780905
0.0291853
0.0293074
0.0289696
0.0283481
0.0276153
0.0267869
0.0258166
0.0247049
0.0234944
0.0221761
0.0207645
0.0192854
0.017768
0.0162451
0.0147509
0.0133182
0.0119762
0.0107484
0.00965116
0.00869364
0.00787785
0.00719976
0.00665067
0.00621904
0.0058926
0.00565381
0.00546046
0.00529935
0.00551167
0.00708958
0.0297276
0.0299491
0.0295852
0.0288957
0.0280934
0.0271866
0.0261205
0.0249329
0.0236334
0.0222213
0.0207156
0.0191427
0.0175332
0.0159211
0.014342
0.0128298
0.0114148
0.0101211
0.00896581
0.00795819
0.00710044
0.0063885
0.00581346
0.00536354
0.00502608
0.00478231
0.00458827
0.00443571
0.00468256
0.00629796
0.0302768
0.0306054
0.030218
0.0294602
0.0285811
0.0275851
0.0264325
0.0251631
0.0237702
0.0222618
0.0206593
0.01899
0.0172857
0.0155818
0.0139151
0.0123207
0.0108297
0.00946702
0.00825024
0.00718903
0.00628568
0.0055361
0.00493118
0.00445895
0.00410637
0.00385337
0.00365438
0.00350685
0.00378522
0.00542884
0.030843
0.0312887
0.0308793
0.0300498
0.0290878
0.0279929
0.0267592
0.0253992
0.0239082
0.0222998
0.0205967
0.0188271
0.0170241
0.0152245
0.0134662
0.0117856
0.0102146
0.0087788
0.00749638
0.00637732
0.00542406
0.00463247
0.00399332
0.00349443
0.00312238
0.00285574
0.00264747
0.00250137
0.00280842
0.0044738
0.031443
0.0320125
0.0315829
0.0306722
0.0296172
0.0284252
0.0271054
0.0256465
0.0240517
0.022338
0.0205288
0.0186534
0.0167463
0.0148456
0.0129906
0.0112184
0.00956213
0.00804805
0.00669479
0.00551272
0.00450444
0.00366579
0.00298743
0.00245703
0.00206075
0.00177572
0.00155356
0.00140507
0.00173797
0.00342092
0.0321005
0.0327868
0.0323394
0.0313418
0.0301793
0.0288935
0.027476
0.0259101
0.0242047
0.0223786
0.0204561
0.0184677
0.0164494
0.0144408
0.0124821
0.0106117
0.0088635
0.00726462
0.00583418
0.00458288
0.00351349
0.00262188
0.00189859
0.00133112
0.000905235
0.000596527
0.000355388
0.000200236
0.00055605
0.00225405
0.0328344
0.033631
0.0331665
0.0320713
0.0307918
0.0294068
0.0278797
0.0261974
0.0243722
0.0224241
0.0203787
0.018268
0.0161294
0.0140038
0.0119328
0.00995578
0.00810754
0.00641593
0.00490061
0.00357264
0.00243495
0.00148341
0.00070847
9.75118e-05
-0.000364183
-0.000702623
-0.000968545
-0.0011353
-0.000759883
0.000951769
0.0336703
0.0345783
0.0340855
0.0328726
0.0314776
0.0299784
0.0283278
0.0265166
0.0245591
0.0224765
0.020296
0.018051
0.0157805
0.0135267
0.0113324
0.00923834
0.00728002
0.00548603
0.00387655
0.00246298
0.0012484
0.000228692
-0.000605797
-0.00126782
-0.0017726
-0.00214786
-0.00244535
-0.0026296
-0.00223855
-0.000514163
0.0346491
0.0356505
0.0351167
0.0337807
0.0322583
0.0306243
0.0288332
0.0268768
0.0247706
0.0225374
0.0202059
0.0178113
0.0153941
0.0129979
0.010667
0.00844293
0.00636223
0.00445414
0.00273931
0.00122942
-7.2308e-05
-0.00117002
-0.00207348
-0.00279557
-0.00335211
-0.0037726
-0.00410979
-0.00431872
-0.00391714
-0.00218119
0.0358175
0.0368924
0.0363006
0.034833
0.0331577
0.0313652
0.0294117
0.0272886
0.0250122
0.0226072
0.0201044
0.0175405
0.0149578
0.0124015
0.00991706
0.0075471
0.00532897
0.00329249
0.00145871
-0.000160435
-0.00156167
-0.0027492
-0.00373294
-0.00452595
-0.0051447
-0.00562059
-0.0060073
-0.00624991
-0.00584468
-0.00409962
0.0372432
0.0383646
0.0376975
0.0360705
0.0342093
0.032228
0.0300829
0.027764
0.0252889
0.0226845
0.0199836
0.0172252
0.0144531
0.0117142
0.00905504
0.0065194
0.00414524
0.00196284
-6.47851e-06
-0.00175067
-0.00326645
-0.0045582
-0.00563597
-0.0065131
-0.00720679
-0.0077505
-0.00819879
-0.00848646
-0.00808731
-0.0063384
0.0390391
0.0401608
0.0393793
0.0375479
0.035459
0.0332484
0.0308715
0.0283172
0.0256049
0.0227641
0.0198301
0.0168438
0.0138514
0.010901
0.00804046
0.00531428
0.00276089
0.000410793
-0.00171462
-0.00360335
-0.00525227
-0.00666597
-0.00785477
-0.00883234
-0.00961672
-0.0102436
-0.0107683
-0.0111157
-0.010737
-0.00899504
0.0413324
0.0424047
0.0414459
0.0393488
0.0369734
0.0344756
0.0318102
0.0289653
0.0259626
0.0228348
0.0196199
0.0163616
0.0131078
0.00990835
0.00681191
0.00386338
0.00110127
-0.00144409
-0.00375157
-0.00580948
-0.00761498
-0.00917298
-0.0104941
-0.0115925
-0.012487
-0.0132157
-0.013835
-0.0142606
-0.0139237
-0.01221
0.0443788
0.0452902
0.0440531
0.0416005
0.0388518
0.0359813
0.0329437
0.0297278
0.0263584
0.022872
0.0193101
0.0157191
0.012149
0.00865058
0.00527295
0.00206064
-0.000948592
-0.00372527
-0.00624911
-0.00850905
-0.0105027
-0.0122353
-0.0137177
-0.0149644
-0.0159951
-0.0168498
-0.0175858
-0.0181129
-0.0178512
-0.0162065
0.0485608
0.0490997
0.0474087
0.0444634
0.0412156
0.0378486
0.0343188
0.0306174
0.0267737
0.0228289
0.0188288
0.0148228
0.0108628
0.00699999
0.00328272
-0.000246133
-0.00355088
-0.00660421
-0.00938762
-0.0118913
-0.014114
-0.0160615
-0.0177444
-0.0191775
-0.0203812
-0.0213961
-0.0222793
-0.022941
-0.022813
-0.0213226
0.0547506
0.0545424
0.0521064
0.0484604
0.0445071
0.0404188
0.0361644
0.031749
0.0272134
0.0226087
0.0179878
0.0134045
0.00891212
0.0045608
0.000395745
-0.0035444
-0.00722853
-0.0106335
-0.0137434
-0.0165489
-0.019052
-0.0212715
-0.0232032
-0.0248616
-0.0262679
-0.0274603
-0.0284916
-0.0292877
-0.0293563
-0.0281869
0.0655572
0.0636624
0.0596718
0.0547953
0.049678
0.0444163
0.0390068
0.0334849
0.0279084
0.0223378
0.0168304
0.0114393
0.00621241
0.00119099
-0.0035906
-0.00810497
-0.0123313
-0.016255
-0.0198677
-0.0231671
-0.0261494
-0.0288024
-0.0311517
-0.0332058
-0.0349758
-0.0364872
-0.0377852
-0.0388593
-0.0394136
-0.0388938
0.0178234
0.0187607
0.0205082
0.0218895
0.0230429
0.0241148
0.025139
0.0261245
0.0270812
0.0280185
0.0289448
0.0298677
0.0307954
0.0317365
0.0326994
0.0336944
0.0347343
0.0358356
0.0370169
0.0382999
0.0397119
0.0412927
0.0430896
0.0451686
0.0476185
0.0505747
0.0542222
0.0587741
0.0644577
0.0717942
0.0221431
0.0231181
0.0242423
0.0251773
0.0260101
0.0268026
0.0275664
0.0283058
0.029028
0.0297411
0.030453
0.0311717
0.0319057
0.0326636
0.0334553
0.0342924
0.0351886
0.036161
0.0372298
0.0384198
0.0397632
0.0413033
0.0430966
0.0452214
0.0477872
0.0509567
0.0549645
0.0601323
0.0669477
0.0759988
0.0244501
0.0253183
0.0261601
0.0269104
0.0276376
0.0283583
0.0290693
0.0297715
0.0304699
0.0311703
0.0318787
0.0326018
0.0333469
0.0341222
0.0349372
0.0358032
0.0367345
0.0377481
0.0388656
0.0401137
0.0415278
0.0431549
0.0450578
0.0473239
0.0500771
0.0534967
0.057849
0.0635125
0.0711382
0.0814177
0.0264616
0.027221
0.0279477
0.0286185
0.029282
0.0299481
0.0306159
0.031288
0.0319696
0.032666
0.0333829
0.0341265
0.034904
0.0357233
0.0365941
0.037528
0.0385394
0.0396461
0.0408703
0.0422407
0.0437947
0.0455822
0.0476703
0.0501522
0.0531593
0.056881
0.061598
0.0677057
0.075946
0.0870567
0.0283386
0.0290054
0.0296428
0.0302427
0.0308465
0.031464
0.032096
0.0327452
0.0334158
0.0341125
0.0348406
0.0356059
0.0364154
0.0372772
0.0382012
0.0391994
0.0402868
0.0414821
0.0428086
0.0442968
0.0459862
0.0479292
0.0501969
0.0528867
0.0561359
0.0601415
0.0651941
0.0717001
0.0804852
0.0923446
0.0300524
0.0306373
0.0311989
0.0317396
0.0322963
0.0328779
0.0334851
0.03412
0.0347862
0.0354879
0.0362301
0.0370183
0.0378594
0.0387615
0.0397348
0.0407916
0.0419473
0.0432213
0.0446382
0.0462296
0.0480371
0.0501154
0.0525383
0.0554073
0.0588646
0.0631135
0.0684544
0.0753067
0.0845777
0.0971449
0.0316001
0.032112
0.0326096
0.0331019
0.0336219
0.0341768
0.0347666
0.0353932
0.0360598
0.0367701
0.0375287
0.0383409
0.0392135
0.0401547
0.0411745
0.0422858
0.0435042
0.0448498
0.0463479
0.0480315
0.0499432
0.0521399
0.0546976
0.057721
0.0613561
0.065812
0.0713978
0.0785466
0.0882318
0.101427
0.0329772
0.0334235
0.0338662
0.034319
0.0348102
0.035345
0.035923
0.0365457
0.0372157
0.0379365
0.0387123
0.0395482
0.0404508
0.0414284
0.0424912
0.043652
0.0449269
0.0463365
0.0479068
0.0496716
0.0516747
0.0539744
0.0566487
0.0598046
0.0635914
0.0682227
0.0740154
0.0814146
0.0914391
0.105166
0.0341752
0.0345626
0.0349587
0.0353798
0.0358486
0.0363685
0.0369388
0.0375604
0.0382357
0.0389676
0.0397599
0.0406179
0.0415479
0.0425581
0.0436589
0.0448631
0.0461874
0.0476524
0.049285
0.0511194
0.0532006
0.0555878
0.0583606
0.0616278
0.0655414
0.0703188
0.0762831
0.0838898
0.0941827
0.108348
0.0351871
0.0355228
0.0358803
0.0362763
0.0367281
0.0372373
0.0378027
0.0384251
0.0391062
0.0398486
0.0406561
0.0415336
0.0424874
0.0435257
0.0446588
0.0459
0.0472657
0.0487773
0.0504617
0.052354
0.0544997
0.0569589
0.0598125
0.0631707
0.0671875
0.0720832
0.0781863
0.0859609
0.0964576
0.110978
0.03601
0.0363017
0.0366284
0.0370053
0.0374445
0.0379461
0.0385087
0.0391326
0.0398193
0.0405712
0.0413917
0.0422855
0.0432591
0.0443205
0.0454801
0.0467512
0.0481506
0.0496996
0.0514258
0.0533643
0.0555615
0.058078
0.0609955
0.0644255
0.0685236
0.0735121
0.0797238
0.0876299
0.0982743
0.113077
0.0366459
0.0369023
0.0372054
0.0375684
0.0379987
0.038495
0.039056
0.0396817
0.0403733
0.0411329
0.0419638
0.0428707
0.0438598
0.0449392
0.0461194
0.0474136
0.0488389
0.0504167
0.0521747
0.0541486
0.0563849
0.0589449
0.0619109
0.0653951
0.0695544
0.0746125
0.0809057
0.0889106
0.0996547
0.114677
0.0371021
0.0373323
0.0376187
0.0379721
0.0383963
0.0388893
0.0394495
0.0400769
0.0407722
0.0415376
0.0423762
0.0432926
0.044293
0.0453854
0.0465804
0.0478913
0.0493351
0.0509335
0.0527143
0.0547134
0.0569775
0.0595684
0.0625687
0.0660912
0.0702937
0.0754007
0.081751
0.0898257
0.10063
0.11582
0.0373904
0.0376034
0.0378793
0.0382269
0.0386475
0.0391385
0.0396984
0.040327
0.0410249
0.0417941
0.0426377
0.0435603
0.0445679
0.0456687
0.0468732
0.0481947
0.0496503
0.0512618
0.053057
0.0550721
0.0573538
0.0599642
0.0629861
0.0665328
0.0707624
0.0759001
0.0822863
0.0904047
0.101237
0.116548
0.0375258
0.0377305
0.0380014
0.0383463
0.0387652
0.0392555
0.0398153
0.0404445
0.0411437
0.0419148
0.0427609
0.0436864
0.0446975
0.0458024
0.0470114
0.048338
0.0497993
0.051417
0.0532192
0.0552419
0.0575321
0.0601517
0.063184
0.0667423
0.0709848
0.076137
0.0825403
0.0906794
0.101518
0.116901
0.0375257
0.0377304
0.0380014
0.0383463
0.0387652
0.0392554
0.0398153
0.0404445
0.0411437
0.0419148
0.0427608
0.0436864
0.0446975
0.0458023
0.0470114
0.048338
0.0497992
0.051417
0.0532192
0.0552418
0.057532
0.0601517
0.0631839
0.0667422
0.0709847
0.0761369
0.0825402
0.0906793
0.101518
0.1169
0.0373902
0.0376032
0.0378792
0.0382267
0.0386473
0.0391384
0.0396983
0.0403268
0.0410247
0.041794
0.0426376
0.0435601
0.0445677
0.0456685
0.046873
0.0481945
0.0496501
0.0512616
0.0530569
0.0550719
0.0573536
0.059964
0.0629859
0.0665326
0.0707622
0.0758998
0.082286
0.0904044
0.101236
0.116548
0.0371018
0.037332
0.0376184
0.0379718
0.038396
0.038889
0.0394493
0.0400766
0.040772
0.0415373
0.0423759
0.0432923
0.0442927
0.0453852
0.0465802
0.047891
0.0493348
0.0509332
0.052714
0.0547131
0.0569772
0.059568
0.0625683
0.0660908
0.0702932
0.0754002
0.0817505
0.0898251
0.100629
0.115819
0.0366455
0.0369019
0.037205
0.037568
0.0379983
0.0384947
0.0390557
0.0396814
0.040373
0.0411325
0.0419635
0.0428703
0.0438594
0.0449388
0.046119
0.0474132
0.0488385
0.0504163
0.0521743
0.0541482
0.0563844
0.0589444
0.0619103
0.0653945
0.0695538
0.0746118
0.0809049
0.0889097
0.0996537
0.114676
0.0360094
0.0363012
0.0366278
0.0370048
0.0374441
0.0379456
0.0385082
0.0391321
0.0398188
0.0405707
0.0413912
0.0422851
0.0432586
0.04432
0.0454796
0.0467507
0.0481501
0.0496991
0.0514252
0.0533637
0.0555608
0.0580773
0.0609948
0.0644248
0.0685228
0.0735112
0.0797228
0.0876288
0.098273
0.113075
0.0351864
0.0355221
0.0358796
0.0362756
0.0367275
0.0372367
0.0378021
0.0384245
0.0391056
0.039848
0.0406556
0.041533
0.0424868
0.0435251
0.0446582
0.0458993
0.0472651
0.0487766
0.050461
0.0523533
0.0544989
0.0569581
0.0598116
0.0631697
0.0671865
0.0720821
0.0781851
0.0859595
0.0964561
0.110976
0.0341744
0.0345618
0.0349579
0.035379
0.0358479
0.0363678
0.0369381
0.0375597
0.038235
0.0389669
0.0397593
0.0406172
0.0415472
0.0425574
0.0436581
0.0448624
0.0461866
0.0476516
0.0492842
0.0511185
0.0531996
0.0555868
0.0583595
0.0616267
0.0655402
0.0703174
0.0762816
0.0838882
0.0941808
0.108346
0.0329763
0.0334225
0.0338652
0.0343181
0.0348093
0.0353441
0.0359221
0.0365449
0.0372149
0.0379357
0.0387115
0.0395474
0.04045
0.0414276
0.0424903
0.0436511
0.044926
0.0463356
0.0479059
0.0496706
0.0516737
0.0539733
0.0566475
0.0598033
0.06359
0.0682212
0.0740137
0.0814127
0.0914369
0.105164
0.031599
0.032111
0.0326085
0.0331008
0.0336209
0.0341758
0.0347657
0.0353923
0.0360589
0.0367692
0.0375278
0.03834
0.0392126
0.0401537
0.0411736
0.0422848
0.0435032
0.0448487
0.0463469
0.0480303
0.049942
0.0521386
0.0546963
0.0577195
0.0613545
0.0658103
0.0713959
0.0785445
0.0882293
0.101424
0.0300511
0.0306361
0.0311977
0.0317384
0.0322952
0.0328769
0.0334841
0.0341189
0.0347852
0.0354869
0.0362291
0.0370173
0.0378584
0.0387605
0.0397338
0.0407905
0.0419462
0.0432201
0.044637
0.0462284
0.0480358
0.050114
0.0525368
0.0554057
0.0588628
0.0631116
0.0684523
0.0753044
0.084575
0.0971416
0.0283371
0.029004
0.0296414
0.0302414
0.0308452
0.0314628
0.0320948
0.032744
0.0334147
0.0341114
0.0348395
0.0356048
0.0364143
0.0372761
0.0382001
0.0391983
0.0402857
0.0414808
0.0428073
0.0442955
0.0459847
0.0479277
0.0501953
0.052885
0.0561341
0.0601395
0.0651919
0.0716976
0.0804822
0.0923411
0.02646
0.0272194
0.0279462
0.0286171
0.0292807
0.0299468
0.0306146
0.0312868
0.0319684
0.0326648
0.0333817
0.0341254
0.0349028
0.0357221
0.0365929
0.0375268
0.0385382
0.0396448
0.040869
0.0422393
0.0437932
0.0455806
0.0476686
0.0501503
0.0531573
0.0568788
0.0615955
0.0677029
0.0759428
0.0870528
0.0244482
0.0253165
0.0261584
0.0269088
0.0276361
0.0283568
0.0290679
0.0297702
0.0304686
0.031169
0.0318775
0.0326006
0.0333457
0.034121
0.0349359
0.035802
0.0367332
0.0377468
0.0388642
0.0401122
0.0415263
0.0431532
0.045056
0.047322
0.050075
0.0534944
0.0578464
0.0635096
0.0711348
0.0814136
0.022141
0.0231161
0.0242404
0.0251755
0.0260084
0.026801
0.0275649
0.0283044
0.0290266
0.0297398
0.0304517
0.0311704
0.0319044
0.0326623
0.033454
0.034291
0.0351872
0.0361596
0.0372284
0.0384182
0.0397616
0.0413016
0.0430948
0.0452194
0.0477851
0.0509544
0.0549618
0.0601293
0.0669441
0.0759945
0.0178208
0.0187583
0.0205059
0.0218874
0.0230409
0.0241129
0.0251372
0.0261228
0.0270795
0.0280169
0.0289432
0.0298662
0.0307939
0.0317351
0.0326979
0.0336929
0.0347329
0.0358341
0.0370154
0.0382983
0.0397103
0.041291
0.0430878
0.0451667
0.0476165
0.0505724
0.0542197
0.0587712
0.0644541
0.0717898
0.0655525
0.0636576
0.0596669
0.0547903
0.049673
0.0444112
0.0390017
0.0334797
0.0279032
0.0223326
0.0168252
0.0114343
0.00620747
0.00118616
-0.00359528
-0.00810949
-0.0123357
-0.0162592
-0.0198717
-0.0231709
-0.0261529
-0.0288057
-0.0311548
-0.0332088
-0.0349785
-0.0364897
-0.0377876
-0.0388615
-0.0394156
-0.0388958
0.0547466
0.0545385
0.0521024
0.0484563
0.0445028
0.0404145
0.03616
0.0317445
0.027209
0.0226043
0.0179833
0.0134001
0.00890782
0.00455659
0.000391652
-0.00354836
-0.00723235
-0.0106371
-0.0137469
-0.0165522
-0.0190551
-0.0212745
-0.023206
-0.0248642
-0.0262704
-0.0274626
-0.0284937
-0.0292897
-0.0293581
-0.0281888
0.0485574
0.0490964
0.0474053
0.0444599
0.0412119
0.0378449
0.034315
0.0306136
0.0267698
0.022825
0.0188249
0.014819
0.010859
0.00699627
0.00327909
-0.00024965
-0.00355427
-0.00660747
-0.00939072
-0.0118942
-0.0141168
-0.0160641
-0.0177469
-0.0191799
-0.0203834
-0.0213981
-0.0222812
-0.0229428
-0.0228147
-0.0213243
0.0443758
0.0452873
0.04405
0.0415973
0.0388486
0.0359779
0.0329403
0.0297244
0.0263549
0.0228685
0.0193066
0.0157157
0.0121456
0.00864723
0.00526968
0.00205746
-0.000951659
-0.00372822
-0.00625193
-0.00851173
-0.0105053
-0.0122377
-0.01372
-0.0149665
-0.0159971
-0.0168516
-0.0175875
-0.0181145
-0.0178527
-0.016208
0.0413297
0.042402
0.0414431
0.039346
0.0369705
0.0344726
0.0318071
0.0289622
0.0259595
0.0228316
0.0196167
0.0163585
0.0131047
0.00990529
0.00680892
0.00386048
0.00109847
-0.00144678
-0.00375414
-0.00581193
-0.0076173
-0.00917517
-0.0104962
-0.0115944
-0.0124888
-0.0132174
-0.0138366
-0.0142621
-0.0139252
-0.0122115
0.0390366
0.0401584
0.0393769
0.0375454
0.0354564
0.0332457
0.0308687
0.0283144
0.0256021
0.0227612
0.0198272
0.0168409
0.0138485
0.0108982
0.00803771
0.0053116
0.0027583
0.00040831
-0.00171699
-0.00360561
-0.00525441
-0.00666799
-0.00785668
-0.00883413
-0.0096184
-0.0102451
-0.0107698
-0.0111171
-0.0107383
-0.00899636
0.037241
0.0383624
0.0376952
0.0360682
0.0342069
0.0322255
0.0300804
0.0277614
0.0252862
0.0226818
0.0199809
0.0172225
0.0144504
0.0117115
0.00905248
0.00651691
0.00414284
0.00196053
-8.68698e-06
-0.00175277
-0.00326845
-0.00456008
-0.00563774
-0.00651477
-0.00720836
-0.00775197
-0.00820016
-0.00848775
-0.00808853
-0.00633962
0.0358154
0.0368904
0.0362985
0.0348309
0.0331555
0.0313628
0.0294093
0.0272861
0.0250097
0.0226047
0.0201018
0.017538
0.0149553
0.0123991
0.00991467
0.00754477
0.00532672
0.00329033
0.00145664
-0.000162406
-0.00156354
-0.00275097
-0.00373461
-0.00452752
-0.00514617
-0.00562197
-0.0060086
-0.00625113
-0.00584584
-0.00410077
0.0346472
0.0356486
0.0351147
0.0337787
0.0322562
0.0306221
0.0288309
0.0268745
0.0247683
0.0225351
0.0202036
0.0178089
0.0153917
0.0129956
0.0106647
0.00844073
0.00636011
0.0044521
0.00273735
0.00122755
-7.40752e-05
-0.00117169
-0.00207505
-0.00279706
-0.00335351
-0.00377392
-0.00411103
-0.00431989
-0.00391825
-0.00218228
0.0336685
0.0345765
0.0340837
0.0328706
0.0314756
0.0299763
0.0283257
0.0265144
0.0245569
0.0224743
0.0202937
0.0180488
0.0157783
0.0135245
0.0113303
0.00923626
0.007278
0.00548409
0.00387469
0.00246121
0.00124672
0.000227099
-0.000607303
-0.00126924
-0.00177394
-0.00214912
-0.00244655
-0.00263072
-0.00223962
-0.000515199
0.0328327
0.0336293
0.0331648
0.0320694
0.0307899
0.0294049
0.0278777
0.0261953
0.0243701
0.022422
0.0203766
0.0182659
0.0161273
0.0140018
0.0119308
0.00995379
0.00810562
0.00641408
0.00489884
0.00357094
0.00243334
0.00148188
0.000707024
9.61441e-05
-0.000365476
-0.000703846
-0.000969702
-0.00113639
-0.000760925
0.000950772
0.032099
0.0327851
0.0323377
0.03134
0.0301775
0.0288916
0.0274741
0.0259081
0.0242027
0.0223766
0.020454
0.0184657
0.0164474
0.0144388
0.0124801
0.0106098
0.00886166
0.00726285
0.00583248
0.00458125
0.00351195
0.00262041
0.00189719
0.0013298
0.00090398
0.000595337
0.000354259
0.000199163
0.000555027
0.00225308
0.0314415
0.0320109
0.0315813
0.0306705
0.0296154
0.0284234
0.0271036
0.0256446
0.0240498
0.022336
0.0205269
0.0186514
0.0167443
0.0148437
0.0129887
0.0112166
0.00956036
0.00804635
0.00669315
0.00551115
0.00450294
0.00366437
0.00298608
0.00245574
0.00205952
0.00177456
0.00155245
0.00140401
0.00173697
0.00341997
0.0308416
0.0312871
0.0308777
0.0300482
0.0290861
0.0279911
0.0267574
0.0253974
0.0239064
0.022298
0.0205949
0.0188252
0.0170222
0.0152226
0.0134644
0.0117838
0.0102128
0.00877715
0.00749479
0.0063758
0.00542261
0.00463109
0.003992
0.00349317
0.00312118
0.0028546
0.00264637
0.00250033
0.00280742
0.00447287
0.0302754
0.0306039
0.0302165
0.0294586
0.0285795
0.0275835
0.0264307
0.0251614
0.0237684
0.02226
0.0206575
0.0189882
0.0172839
0.0155801
0.0139134
0.012319
0.010828
0.00946542
0.0082487
0.00718755
0.00628427
0.00553474
0.00492989
0.00445771
0.00410519
0.00385224
0.0036533
0.00350581
0.00378422
0.00542792
0.0297262
0.0299476
0.0295836
0.0288942
0.0280918
0.027185
0.0261188
0.0249312
0.0236317
0.0222196
0.0207139
0.019141
0.0175315
0.0159194
0.0143403
0.0128282
0.0114132
0.0101196
0.00896431
0.00795675
0.00709906
0.00638718
0.00581219
0.00536232
0.00502491
0.00478119
0.00458719
0.00443467
0.00468156
0.00629706
0.0291839
0.029306
0.0289681
0.0283466
0.0276137
0.0267853
0.025815
0.0247033
0.0234928
0.0221744
0.0207628
0.0192837
0.0177663
0.0162435
0.0147493
0.0133166
0.0119746
0.0107468
0.0096497
0.00869224
0.0078765
0.00719846
0.00664942
0.00621784
0.00589145
0.0056527
0.00545939
0.0052983
0.00551066
0.00708868
0.0286412
0.0286676
0.0283573
0.0278031
0.0271392
0.0263842
0.0255079
0.0244745
0.0233481
0.0221217
0.020803
0.0194161
0.0179895
0.0165543
0.0151434
0.0137885
0.0125176
0.0113535
0.010312
0.0094018
0.00862491
0.00797735
0.00745063
0.00703349
0.00671407
0.00647599
0.00627901
0.00610572
0.00628026
0.00780814
0.0280907
0.028023
0.0277431
0.027256
0.0266607
0.0259773
0.0251884
0.0242421
0.0231942
0.0220588
0.0208327
0.0195378
0.0182015
0.0168537
0.0155257
0.0142477
0.013047
0.0119451
0.0109575
0.0100924
0.00935174
0.00873157
0.00822367
0.00781714
0.00750052
0.00725859
0.00705328
0.00686382
0.00699686
0.00845814
0.0275227
0.0273657
0.0271189
0.0266992
0.0261738
0.0255578
0.0248487
0.0240018
0.0230289
0.0219831
0.0208504
0.019648
0.0184028
0.0171431
0.0158985
0.0146979
0.0135671
0.0125271
0.0115923
0.0107706
0.0100638
0.00946807
0.00897548
0.00857552
0.0082572
0.00800647
0.00778763
0.00757759
0.00766492
0.00903894
0.0269275
0.0266882
0.0264775
0.0261247
0.0256692
0.0251227
0.0244901
0.023744
0.0228506
0.0218923
0.0208542
0.019746
0.0185935
0.0174236
0.016264
0.0151422
0.0140824
0.0131044
0.012222
0.0114425
0.0107674
0.0101932
0.00971217
0.00931434
0.00898929
0.00872413
0.00848584
0.00825011
0.00828689
0.00954872
0.0262949
0.0259834
0.0258124
0.025527
0.0251416
0.0246667
0.0241101
0.023461
0.0226573
0.0217835
0.0208418
0.0198306
0.0187734
0.0176961
0.0166244
0.0155838
0.0145969
0.0136822
0.0128522
0.012114
0.0114687
0.0109128
0.0104392
0.0100384
0.0097008
0.0094147
0.00915006
0.00888265
0.00886319
0.00998379
0.0256125
0.0252435
0.0251166
0.0249001
0.0245867
0.0241867
0.0237057
0.0231455
0.022446
0.0216533
0.0208106
0.0199002
0.0189422
0.0179615
0.0169817
0.0160259
0.015115
0.0142655
0.013489
0.0127914
0.0121737
0.0116326
0.0111615
0.0107518
0.0103946
0.0100799
0.00978076
0.00947461
0.00939214
0.010339
0.0248634
0.0244582
0.0243818
0.024237
0.0239978
0.0236755
0.0232724
0.0227968
0.0222104
0.0215013
0.0207587
0.0199533
0.0190993
0.0182204
0.0173378
0.0164719
0.0156411
0.0148598
0.0141379
0.0134805
0.012888
0.0123573
0.0118828
0.0114569
0.0110719
0.0107194
0.0103763
0.0100231
0.0098696
0.0106084
0.0240255
0.0236142
0.0235959
0.0235278
0.0233675
0.0231261
0.0228048
0.0224155
0.0219417
0.0213265
0.0206839
0.0199883
0.0192442
0.0184735
0.0176946
0.0169248
0.0161792
0.0154696
0.0148039
0.0141858
0.0136152
0.0130896
0.0126045
0.0121536
0.0117309
0.0113299
0.0109318
0.0105225
0.0102889
0.0107857
0.0230784
0.0227062
0.0227527
0.0227648
0.0226904
0.0225355
0.0223005
0.0220009
0.0216344
0.0211243
0.0205818
0.0200019
0.0193746
0.0187199
0.018053
0.0173873
0.0167339
0.016101
0.0154938
0.0149139
0.0143609
0.0138339
0.0133295
0.0128431
0.0123707
0.0119086
0.0114433
0.0109678
0.0106437
0.0108676
0.0219878
0.0217636
0.0218924
0.0219752
0.0219842
0.0219168
0.0217678
0.0215542
0.0212848
0.0208903
0.0204438
0.0199842
0.0194823
0.0189549
0.0184139
0.0178669
0.0173196
0.0167747
0.0162333
0.0156938
0.0151547
0.01462
0.0140862
0.0135502
0.0130121
0.0124719
0.0119228
0.0113673
0.0109346
0.0108538
0.0205449
0.0207285
0.0210434
0.0211973
0.0212731
0.0212812
0.0212097
0.0210693
0.0208814
0.0206103
0.0202605
0.019925
0.0195614
0.0191808
0.0187892
0.0183863
0.017969
0.017532
0.0170696
0.0165771
0.0160534
0.0154979
0.0149172
0.0143105
0.0136827
0.0130398
0.0123828
0.0117226
0.0111458
0.0107294
0.018064
0.0188599
0.0196597
0.0200606
0.0202895
0.0204308
0.0204866
0.020466
0.0203979
0.0202795
0.0200695
0.019882
0.0196763
0.019455
0.0192168
0.0189526
0.01865
0.018298
0.0178858
0.0174106
0.0168909
0.0162563
0.0155911
0.0148859
0.0141484
0.0133903
0.0126196
0.0118507
0.0111233
0.0104182
0.0141536
0.0147464
0.016215
0.0173001
0.0180867
0.0187118
0.0192016
0.0195675
0.0198374
0.0200216
0.0200834
0.0200967
0.0200337
0.0198904
0.0196655
0.0193552
0.0189568
0.0184731
0.0179073
0.0172593
0.0165233
0.0158056
0.0150496
0.0142706
0.0134888
0.0127169
0.0119647
0.0112464
0.0105719
0.00988949
-0.0405715
-0.0326297
-0.0266326
-0.0217628
-0.0177431
-0.0143967
-0.0115738
-0.00916488
-0.00708693
-0.00527668
-0.00368547
-0.00227535
-0.0010163
0.000115719
0.0011402
0.00207312
0.0029276
0.00371444
0.0044424
0.00511832
0.00574716
0.00633188
0.00687337
0.0073703
0.00781873
0.00821034
0.00853513
0.0087905
0.00897784
0.0090239
-0.0407227
-0.0326535
-0.0263617
-0.0213619