/*--------------------------------*- C++ -*----------------------------------*\
  =========                 |
  \\      /  F ield         | OpenFOAM: The Open Source CFD Toolbox
   \\    /   O peration     | Website:  https://openfoam.org
    \\  /    A nd           | Version:  12
     \\/     M anipulation  |
\*---------------------------------------------------------------------------*/
FoamFile
{
    format      ascii;
    class       surfaceScalarField;
    location    "180";
    object      phi;
}
// * * * * * * * * * * * * * * * * * * * * * * * * * * * * * * * * * * * * * //

dimensions      [0 3 -1 0 0 0 0];

internalField   nonuniform List<scalar> 
13275
(
0.369023
-0.00462564
0.369481
-0.011485
0.369794
-0.0154058
0.369908
-0.0173602
-0.0180304
0.369848
0.351098
-0.00489871
0.35146
-0.011847
0.351681
-0.0156266
0.351642
-0.0173213
-0.0176326
0.351245
0.334002
-0.00502159
0.334077
-0.0119227
0.333968
-0.0155173
0.333634
-0.0169871
-0.017094
0.333095
0.317721
-0.00499214
0.317511
-0.0117118
0.317103
-0.0151095
0.316532
-0.0164169
-0.0164195
0.315858
0.302245
-0.00483534
0.30179
-0.0112567
0.301125
-0.0144442
0.300336
-0.015628
-0.0155825
0.299499
0.287534
-0.00457512
0.286872
-0.0105948
0.285978
-0.01355
0.284977
-0.0146269
-0.0145634
0.283958
0.273546
-0.0042288
0.272706
-0.00975482
0.271606
-0.0124499
0.270402
-0.0134231
-0.0133575
0.269197
0.260244
-0.00381011
0.259251
-0.00876261
0.25797
-0.0111686
0.256581
-0.0120346
-0.0119748
0.255199
0.247593
-0.00333215
0.246476
-0.00764517
0.245043
-0.0097359
0.243497
-0.0104883
-0.010438
0.24196
0.235564
-0.00280867
0.234351
-0.00643212
0.232802
-0.00818673
0.231133
-0.00881911
-0.0087792
0.229474
0.224129
-0.00225406
0.222852
-0.00515483
0.221225
-0.00655943
0.219472
-0.0070667
-0.00703678
0.21773
0.213259
-0.00168275
0.211949
-0.00384474
0.210282
-0.00489285
0.208488
-0.00527199
-0.00525099
0.206702
0.202927
-0.00110864
0.201614
-0.00253132
0.199945
-0.00322376
0.198147
-0.00347399
-0.00346062
0.196356
0.193107
-0.000544274
0.191817
-0.00124106
0.190177
-0.00158443
0.18841
-0.00170695
-0.00170026
0.18665
0.183771
3.58634e-07
0.182529
8.70317e-07
0.180944
1.14911e-06
0.179236
1.25895e-06
1.26447e-06
0.177534
0.183771
0.000544993
0.182529
0.0012428
0.180944
0.00158672
0.179236
0.00170947
0.00170278
0.177534
0.193107
0.00110935
0.191817
0.00253307
0.190177
0.00322605
0.18841
0.0034765
0.00346314
0.18665
0.202927
0.00168347
0.201614
0.00384647
0.199945
0.00489513
0.198147
0.00527449
0.0052535
0.196356
0.213259
0.00225477
0.211949
0.00515656
0.210282
0.0065617
0.208488
0.00706918
0.00703928
0.206702
0.224129
0.00280937
0.222852
0.00643383
0.221225
0.00818899
0.219472
0.00882158
0.00878168
0.21773
0.235564
0.00333284
0.234351
0.00764687
0.232802
0.00973813
0.231133
0.0104907
0.0104404
0.229474
0.247593
0.00381079
0.246476
0.0087643
0.245043
0.0111708
0.243497
0.012037
0.0119773
0.24196
0.260244
0.00422948
0.259251
0.00975649
0.25797
0.0124521
0.256582
0.0134255
0.0133599
0.255199
0.273546
0.00457579
0.272706
0.0105964
0.271606
0.0135522
0.270403
0.0146293
0.0145658
0.269197
0.287534
0.004836
0.286872
0.0112583
0.285978
0.0144464
0.284977
0.0156304
0.0155849
0.283958
0.302245
0.0049928
0.30179
0.0117135
0.301125
0.0151116
0.300336
0.0164192
0.0164219
0.299499
0.317721
0.00502224
0.317511
0.0119243
0.317103
0.0155195
0.316533
0.0169895
0.0170964
0.315858
0.334002
0.00489934
0.334077
0.0118486
0.333968
0.0156287
0.333634
0.0173237
0.0176351
0.333095
0.351098
0.00462624
0.35146
0.0114865
0.351681
0.0154079
0.351642
0.0173626
0.0180328
0.351245
0.369023
0.369481
0.369794
0.369909
0.369848
0.197357
-0.0505316
-0.197397
0.196944
-0.0577726
0.195919
-0.0640444
0.194265
-0.0695622
0.192035
-0.0742909
0.189302
-0.0781648
0.186138
-0.0810929
0.182617
-0.0829523
0.178829
-0.0835986
0.174887
-0.0829826
0.170875
-0.0809079
0.16695
-0.077237
0.163257
-0.0720529
0.159938
-0.0654465
0.157126
-0.0575958
0.154925
-0.0487564
0.153407
-0.0392401
0.152606
-0.0293848
0.152514
-0.0195262
0.153093
-0.00997246
0.154254
-0.000951363
0.155957
0.00732316
0.158095
0.0147644
0.160573
0.0212789
0.163305
0.0268472
0.166212
0.031489
0.169223
0.0352501
0.172276
0.0381924
0.175313
0.0403862
0.0418979
0.178243
0.194726
-0.0506507
-0.194607
0.194062
-0.0571086
0.192708
-0.0626905
0.190764
-0.0676179
0.188307
-0.0718339
0.185409
-0.0752674
0.182138
-0.077822
0.178564
-0.0793775
0.17477
-0.0798052
0.170855
-0.0790675
0.166898
-0.0769508
0.163046
-0.0733853
0.159432
-0.068439
0.156187
-0.0622007
0.153427
-0.0548366
0.151252
-0.0465804
0.149725
-0.0377135
0.14888
-0.0285399
0.148713
-0.0193598
0.149186
-0.0104453
0.150256
-0.00202136
0.151833
0.00574682
0.153849
0.0127484
0.156215
0.0189123
0.158848
0.0242141
0.161671
0.028666
0.164617
0.0323045
0.167628
0.0351812
0.170648
0.0373659
0.0389921
0.173554
0.191409
-0.0503917
-0.191668
0.190442
-0.0561416
0.188874
-0.0611228
0.186785
-0.0655286
0.18424
-0.0692894
0.1813
-0.0723269
0.178021
-0.0745429
0.174467
-0.0758243
0.170725
-0.076063
0.166872
-0.0752145
0.162992
-0.073071
0.159223
-0.0696159
0.155686
-0.0649017
0.152501
-0.059016
0.149779
-0.0521149
0.147611
-0.0444122
0.14606
-0.0361626
0.145159
-0.027639
0.144909
-0.0191098
0.145282
-0.0108181
0.146227
-0.00296661
0.147679
0.00429509
0.149565
0.0108622
0.151806
0.0166716
0.154322
0.0216984
0.157038
0.0259497
0.159888
0.0294543
0.162816
0.0322536
0.16577
0.0344123
0.0361334
0.168628
0.187981
-0.0497913
-0.188582
0.186757
-0.0549173
0.185007
-0.0593728
0.182791
-0.0633129
0.180166
-0.0666643
0.177184
-0.0693448
0.173898
-0.0712572
0.170368
-0.0722937
0.166679
-0.0723739
0.16289
-0.0714256
0.159093
-0.0692737
0.155408
-0.0659316
0.151948
-0.0614412
0.148822
-0.0558896
0.14613
-0.0494235
0.143958
-0.04224
0.142366
-0.0345703
0.141387
-0.0266603
0.141027
-0.0187503
0.141266
-0.0110571
0.142061
-0.00376143
0.143356
0.00300023
0.145085
0.00913355
0.147175
0.0145816
0.149552
0.0193207
0.152147
0.0233551
0.154893
0.0267079
0.157736
0.0294113
0.160626
0.0315224
0.0333107
0.163448
0.184473
-0.048899
-0.185365
0.183024
-0.0534681
0.181106
-0.0574548
0.178771
-0.0609784
0.17607
-0.0639627
0.173048
-0.0663234
0.169757
-0.0679658
0.166252
-0.0687889
0.162614
-0.0687356
0.158888
-0.0676997
0.155171
-0.0655569
0.151568
-0.0623289
0.148181
-0.0580537
0.145109
-0.0528172
0.142443
-0.0467582
0.140262
-0.0400592
0.138624
-0.0329314
0.137561
-0.0255973
0.137083
-0.0182725
0.137176
-0.0111506
0.137807
-0.00439237
0.138928
0.00187971
0.14048
0.00758149
0.142399
0.0126625
0.144618
0.0171017
0.147071
0.020902
0.149696
0.0240825
0.152439
0.0266684
0.155254
0.0287079
0.0305277
0.158037
0.180853
-0.0477437
-0.182008
0.1792
-0.0518146
0.17713
-0.0553852
0.17469
-0.0585383
0.171922
-0.0611949
0.168869
-0.0632705
0.165578
-0.0646742
0.162102
-0.0653138
0.158511
-0.0651443
0.154847
-0.0640359
0.151206
-0.0619157
0.14768
-0.0588024
0.14436
-0.0547338
0.141337
-0.0497947
0.138696
-0.0441168
0.136507
-0.03787
0.134823
-0.0312481
0.133679
-0.0244533
0.133086
-0.0176797
0.133036
-0.0111004
0.133502
-0.00485833
0.134444
0.000937907
0.135812
0.00621402
0.137548
0.0109262
0.139593
0.0150564
0.141887
0.018608
0.144372
0.0215974
0.146996
0.0240449
0.149713
0.0259903
0.0278027
0.152438
0.1771
-0.0463499
-0.178494
0.175264
-0.0499781
0.173061
-0.0531824
0.17053
-0.0560073
0.167707
-0.0583721
0.164631
-0.0601941
0.161344
-0.0613875
0.157901
-0.0618708
0.154354
-0.0615966
0.15075
-0.0604327
0.14718
-0.0583452
0.143724
-0.0553467
0.140467
-0.0514768
0.137492
-0.0468191
0.134874
-0.0414991
0.132679
-0.0356752
0.130957
-0.0295263
0.129741
-0.0232366
0.129042
-0.0169814
0.128858
-0.0109157
0.129166
-0.0051664
0.129933
0.000170712
0.131116
0.00503084
0.132666
0.00937659
0.134529
0.0131936
0.13665
0.0164861
0.138979
0.0192692
0.141464
0.02156
0.144062
0.0233916
0.0251591
0.146706
0.173206
-0.044744
-0.174812
0.17121
-0.0479815
0.168892
-0.0508645
0.166283
-0.053399
0.163416
-0.0555046
0.160323
-0.0571014
0.157045
-0.0581088
0.153634
-0.0584599
0.150127
-0.0580901
0.146583
-0.0568881
0.143078
-0.0548408
0.139689
-0.0519571
0.136491
-0.0482791
0.133561
-0.043889
0.130968
-0.0389064
0.128773
-0.0334797
0.12702
-0.0277742
0.125742
-0.0219582
0.124951
-0.0161904
0.124645
-0.0106096
0.124807
-0.00532877
0.12541
-0.000431728
0.126415
0.00402543
0.12778
0.00801143
0.129458
0.0115156
0.131401
0.0145434
0.133561
0.0171096
0.135891
0.0192293
0.138352
0.0209313
0.0226207
0.14089
0.169165
-0.0429531
-0.170956
0.167031
-0.0458477
0.164615
-0.0484486
0.161942
-0.050726
0.159039
-0.0526011
0.155936
-0.0539983
0.152668
-0.0548415
0.149287
-0.0550786
0.145821
-0.0546244
0.142333
-0.0533998
0.138891
-0.0513984
0.135563
-0.04863
0.132423
-0.0451383
0.129538
-0.0410041
0.126973
-0.0363414
0.124783
-0.0312895
0.123009
-0.0260011
0.121682
-0.0206304
0.120812
-0.0153211
0.1204
-0.0101978
0.120432
-0.00536063
0.120884
-0.000883103
0.121722
0.00318675
0.122911
0.00682324
0.124407
0.0100191
0.126169
0.0127816
0.128153
0.0151251
0.130319
0.0170639
0.132626
0.0186242
0.0202083
0.135038
0.164972
-0.0410041
-0.166921
0.162723
-0.0435981
0.160225
-0.0459505
0.157498
-0.0479997
0.154567
-0.0496694
0.151458
-0.0508892
0.148206
-0.05159
0.144852
-0.051725
0.141427
-0.0511994
0.137993
-0.0499649
0.134609
-0.0480152
0.131342
-0.0453629
0.128257
-0.0420533
0.125418
-0.0381653
0.122885
-0.0338079
0.120707
-0.0291113
0.118922
-0.024217
0.117558
-0.0192659
0.116625
-0.0143885
0.116124
-0.00969656
0.116042
-0.00527879
0.116359
-0.0011994
0.117045
0.00250068
0.118067
0.00580076
0.11939
0.00869674
0.120974
0.0111972
0.122782
0.0133169
0.124776
0.0150698
0.12692
0.0164806
0.0179388
0.129189
0.160625
-0.0389221
-0.162707
0.158279
-0.0412524
0.155713
-0.0433847
0.152944
-0.0452305
0.149992
-0.046717
0.146881
-0.0477789
0.143648
-0.0483568
0.140321
-0.0483981
0.136938
-0.0478158
0.133555
-0.0465818
0.130229
-0.0446895
0.127021
-0.0421547
0.123991
-0.0390241
0.121201
-0.0353747
0.118703
-0.0313101
0.116544
-0.0269522
0.114759
-0.0224317
0.11337
-0.0178775
0.11239
-0.0134077
0.111816
-0.00912252
0.111637
-0.00510054
0.111836
-0.00139771
0.112385
0.00195129
0.113256
0.00493014
0.114415
0.00753745
0.115829
0.00978307
0.117464
0.0116819
0.119286
0.013248
0.121261
0.0145057
0.0158239
0.123376
0.156118
-0.0367307
-0.158309
0.153694
-0.0388286
0.151074
-0.0407647
0.148272
-0.0424285
0.145306
-0.043751
0.142199
-0.0446715
0.138985
-0.0451426
0.135686
-0.0450995
0.132345
-0.0444746
0.129013
-0.0432501
0.125744
-0.0414207
0.122595
-0.0390056
0.119623
-0.0360521
0.116884
-0.0326354
0.114427
-0.0288533
0.112295
-0.0248198
0.110518
-0.0206554
0.109118
-0.0164776
0.108104
-0.0123931
0.107473
-0.00849178
0.107216
-0.00484299
0.107313
-0.00149539
0.107743
0.00152181
0.108477
0.00419602
0.109486
0.00652807
0.11074
0.0085288
0.112209
0.0102132
0.113862
0.0115955
0.115667
0.0127
0.0138703
0.117621
0.151448
-0.0344513
-0.153727
0.148962
-0.0363431
0.1463
-0.0381026
0.143474
-0.0396024
0.140501
-0.0407777
0.137402
-0.0415735
0.134209
-0.0419488
0.130941
-0.0418315
0.127643
-0.041177
0.124363
-0.0399704
0.121152
-0.0382097
0.118064
-0.0359169
0.115151
-0.0331398
0.112467
-0.029951
0.110057
-0.026443
0.107959
-0.0227217
0.106201
-0.0188976
0.104801
-0.0150778
0.103766
-0.0113585
0.103094
-0.00781966
0.102774
-0.00452258
0.102788
-0.00150941
0.103114
0.00119538
0.103728
0.00358232
0.104602
0.005654
0.105709
0.00742194
0.107021
0.00890102
0.108511
0.0101056
0.110151
0.0110602
0.0120803
0.111941
0.146607
-0.0321034
-0.148955
0.144074
-0.03381
0.141382
-0.0354098
0.138541
-0.0367614
0.135567
-0.0378039
0.132483
-0.0384902
0.129312
-0.038777
0.126078
-0.0385979
0.122826
-0.0379251
0.1196
-0.0367446
0.116449
-0.0350585
0.113423
-0.0328912
0.110574
-0.0302906
0.107949
-0.0273263
0.105592
-0.0240853
0.103535
-0.0206654
0.101806
-0.0171678
0.100417
-0.0136895
0.0993755
-0.0103167
0.0986764
-0.00712052
0.0983086
-0.00415482
0.0982552
-0.001456
0.0984951
0.000955541
0.0990045
0.00307292
0.0997584
0.00490005
0.100732
0.00644875
0.101899
0.00773365
0.103236
0.00876903
0.104716
0.00957969
0.0104517
0.106345
0.141589
-0.0297041
-0.143989
0.139022
-0.031243
0.13631
-0.0326976
0.133463
-0.0339145
0.130496
-0.0348364
0.127431
-0.0354255
0.124286
-0.0356314
0.121091
-0.0354035
0.117888
-0.0347221
0.114719
-0.0335757
0.111631
-0.0319702
0.108672
-0.0299321
0.10589
-0.0275087
0.10333
-0.0247664
0.101031
-0.0217864
0.0990246
-0.0186586
0.0973318
-0.0154751
0.0959654
-0.0123231
0.0949284
-0.00927966
0.0942155
-0.00640763
0.0938148
-0.00375411
0.0937092
-0.00135039
0.0938781
0.000786622
0.0942989
0.00265213
0.094948
0.00425096
0.0958018
0.00559494
0.0968373
0.0066982
0.0980314
0.00757484
0.0993616
0.00824956
0.00897919
0.100834
0.136382
-0.0272688
-0.138818
0.133795
-0.0286555
0.131074
-0.0299771
0.12823
-0.0310704
0.125278
-0.0318838
0.122236
-0.0323838
0.119122
-0.0325178
0.115972
-0.0322531
0.112822
-0.0315722
0.109714
-0.0304679
0.106693
-0.0289494
0.103806
-0.0270444
0.101096
-0.0247995
0.0986072
-0.0222772
0.0963738
-0.019553
0.094424
-0.0167089
0.092777
-0.0138281
0.0914424
-0.0109885
0.0904212
-0.00825845
0.0897067
-0.0056932
0.0892863
-0.00333369
0.0891426
-0.00120666
0.0892552
0.000673963
0.0896023
0.00230503
0.0901614
0.00369193
0.0909101
0.00484619
0.091827
0.00578127
0.092891
0.00651087
0.0940813
0.00705925
0.00765493
0.0954056
0.130973
-0.0248118
-0.13343
0.128379
-0.0260614
0.125661
-0.0272593
0.122829
-0.028238
0.119899
-0.0289535
0.116885
-0.0293703
0.113811
-0.0294438
0.11071
-0.0291524
0.107619
-0.0284811
0.104578
-0.0274268
0.10163
-0.0260014
0.0988195
-0.0242338
0.0961887
-0.0221687
0.0937765
-0.019865
0.0916155
-0.0173919
0.0897303
-0.0148238
0.0881373
-0.012235
0.0868436
-0.00969483
0.0858484
-0.0072632
0.0851435
-0.00498834
0.0847155
-0.00290559
0.0845465
-0.00103767
0.0846164
0.000604055
0.0849037
0.00201769
0.0853868
0.00320888
0.0860443
0.00418861
0.0868561
0.00496947
0.0878025
0.00556455
0.0888644
0.00599733
0.00646947
0.0900499
0.125346
-0.0223478
-0.12781
0.122759
-0.023474
0.120055
-0.0245551
0.117244
-0.0254275
0.114343
-0.026053
0.111366
-0.0263929
0.108339
-0.0264171
0.105295
-0.0261085
0.10227
-0.0254556
0.099302
-0.0244589
0.0964336
-0.023133
0.0937065
-0.0215067
0.0911609
-0.0196231
0.0888325
-0.0175366
0.0867509
-0.0153103
0.0849378
-0.0130108
0.0834068
-0.010704
0.0821627
-0.00845073
0.0812027
-0.00630324
0.0805175
-0.00430316
0.0800927
-0.00248072
0.07991
-0.000855051
0.0799495
0.000564621
0.0801898
0.00177735
0.08061
0.00278875
0.0811895
0.00360906
0.0819091
0.00424983
0.0827503
0.00472341
0.0836955
0.00505207
0.00541238
0.0847526
0.119482
-0.0198925
-0.121937
0.116913
-0.0209058
0.114234
-0.0218758
0.111456
-0.0226496
0.108593
-0.0231897
0.105662
-0.0234617
0.102691
-0.0234466
0.0997124
-0.0231297
0.0967605
-0.0225036
0.0938739
-0.0215723
0.0910927
-0.0203518
0.0884568
-0.0188709
0.0860038
-0.01717
0.0837665
-0.0152994
0.0817716
-0.0133154
0.0800381
-0.0112772
0.0785767
-0.00924259
0.0773902
-0.00726422
0.076474
-0.0053871
0.0758176
-0.00364677
0.0754057
-0.00206882
0.0752199
-0.0006692
0.0752399
0.000544657
0.0754447
0.00157247
0.0758139
0.00241961
0.0763275
0.00309539
0.0769672
0.00361022
0.0777151
0.00397548
0.0785552
0.00421197
0.00447297
0.0794946
0.113353
-0.017462
-0.115784
0.110817
-0.0183696
0.108175
-0.0192335
0.10544
-0.0199146
0.102624
-0.0203742
0.0997507
-0.0205882
0.0968466
-0.0205425
0.0939428
-0.0202259
0.091074
-0.0196349
0.0882778
-0.018776
0.0855928
-0.0176667
0.0830566
-0.0163347
0.0807044
-0.0148178
0.0785661
-0.0131611
0.0766656
-0.0114149
0.075019
-0.00963063
0.0736347
-0.00785826
0.0725133
-0.00614286
0.0716488
-0.00452257
0.0710294
-0.00302734
0.0706391
-0.00167853
0.0704592
-0.000489293
0.0704694
0.000534449
0.070649
0.00139284
0.0709778
0.00209082
0.0714365
0.00263665
0.0720073
0.00303952
0.0726731
0.00330968
0.0734189
0.00346617
0.00364082
0.074251
0.106926
-0.0150725
-0.109315
0.104435
-0.015879
0.101844
-0.0166421
0.0991633
-0.017234
0.0964092
-0.01762
0.0936056
-0.0177846
0.0907797
-0.0177166
0.0879623
-0.0174085
0.0851878
-0.0168604
0.0824927
-0.0160809
0.0799139
-0.0150879
0.0774871
-0.013908
0.0752447
-0.0125754
0.073214
-0.0111304
0.0714158
-0.00961665
0.0698637
-0.00807852
0.0685637
-0.00655826
0.0675145
-0.00509375
0.0667088
-0.00371679
0.0661336
-0.00245217
0.0657725
-0.00131744
0.0656065
-0.000323293
0.0656154
0.000525595
0.0657786
0.0012296
0.0660763
0.0017931
0.0664897
0.00222323
0.0670014
0.00252787
0.067595
0.00271605
0.0682564
0.0028048
0.00290625
0.0689909
0.100153
-0.0127416
-0.102483
0.0977246
-0.013451
0.0951991
-0.0141166
0.0925874
-0.0146224
0.0899098
-0.0149424
0.0871903
-0.0150651
0.0844561
-0.0149824
0.0817385
-0.0146908
0.0790712
-0.0141931
0.0764896
-0.0134993
0.0740289
-0.0126272
0.0717224
-0.0116015
0.0695999
-0.0104529
0.0676859
-0.00921638
0.0659985
-0.00792922
0.0645486
-0.00662864
0.0633401
-0.00534974
0.06237
-0.00412364
0.0616295
-0.00297627
0.061105
-0.0019277
0.0607796
-0.000992072
0.0606343
-0.00017794
0.0606488
0.000511051
0.0608031
0.00107536
0.0610775
0.00151869
0.0614537
0.00184703
0.0619147
0.00206691
0.0624446
0.00218606
0.0630301
0.00221932
0.00226074
0.0636756
0.0929731
-0.0104894
-0.0952253
0.0906261
-0.011104
0.0881828
-0.0116733
0.0856584
-0.012098
0.0830745
-0.0123585
0.0804555
-0.0124461
0.0778295
-0.0123564
0.0752275
-0.0120888
0.0726827
-0.0116483
0.0702291
-0.0110458
0.0679002
-0.0102983
0.0657267
-0.00942805
0.0637357
-0.00846188
0.0619488
-0.00742945
0.0603813
-0.00636172
0.0590417
-0.00528911
0.0579319
-0.00423992
0.0570473
-0.00323901
0.0563779
-0.00230693
0.0559097
-0.00145952
0.0556256
-0.000707878
0.0555063
-5.86908e-05
0.0555321
0.000485218
0.0556832
0.000924269
0.0559404
0.00126148
0.0562858
0.00150163
0.0567028
0.00164996
0.057176
0.00171284
0.0576925
0.00170281
0.0016973
0.058256
0.0853032
-0.00833867
-0.0874539
0.0830574
-0.00885824
0.0807176
-0.00933347
0.0783017
-0.00968209
0.0758318
-0.0098887
0.0733336
-0.00994786
0.0708355
-0.00985824
0.0683683
-0.00962171
0.0659646
-0.00924459
0.0636568
-0.00873796
0.0614759
-0.00811741
0.0594504
-0.00740249
0.0576042
-0.00661571
0.0559562
-0.00578141
0.0545188
-0.0049244
0.0532984
-0.00406867
0.0522947
-0.00323621
0.0515018
-0.00244615
0.0509091
-0.00171419
0.050502
-0.00105238
0.0502632
-0.000469151
0.0501741
3.04023e-05
0.0502152
0.000444115
0.0503672
0.000772292
0.0506115
0.00101723
0.0509305
0.00118258
0.0513081
0.00127234
0.0517294
0.00129153
0.0521819
0.00125035
0.00121091
0.0526683
0.077021
-0.00631513
-0.0790445
0.0749025
-0.00673981
0.0726929
-0.0071238
0.0704111
-0.00740027
0.0680807
-0.00755838
0.0657285
-0.00759559
0.0633831
-0.00751286
0.0610751
-0.00731375
0.0588357
-0.0070052
0.0566955
-0.00659767
0.0546829
-0.00610488
0.0528236
-0.00554314
0.0511384
-0.00493057
0.0496433
-0.00428624
0.048348
-0.00362909
0.0472564
-0.00297711
0.0463667
-0.00234654
0.0456719
-0.00175136
0.0451607
-0.00120297
0.0448184
-0.0007101
0.0446282
-0.000278885
0.0445717
8.69258e-05
0.0446301
0.000385683
0.0447848
0.000617527
0.045018
0.000784063
0.0453127
0.000887896
0.0456532
0.000931883
0.0460249
0.000919793
0.0464158
0.000859487
0.000798963
0.0468277
0.0679479
-0.00445209
-0.0698109
0.0659906
-0.00478256
0.0639442
-0.00507736
0.0618297
-0.00528578
0.0596723
-0.00540101
0.0574994
-0.00542267
0.0553397
-0.00535316
0.0532228
-0.00519686
0.0511782
-0.00496055
0.0492339
-0.00465341
0.0474158
-0.00428674
0.0457459
-0.00387332
0.0442422
-0.00342687
0.0429173
-0.0029613
0.0417783
-0.00249014
0.0408271
-0.00202591
0.0400603
-0.00157974
0.0394701
-0.00116111
0.0390448
-0.000777709
0.0387702
-0.000435435
0.0386298
-0.000138482
0.0386062
0.000110512
0.0386816
0.000310297
0.0388383
0.00046083
0.0390593
0.000563078
0.0393284
0.00061872
0.0396307
0.000629638
0.039952
0.000598474
0.0402806
0.000530884
0.000461866
0.0406177
0.0578047
-0.00279353
-0.0594632
0.0560533
-0.00303122
0.054216
-0.00324009
0.0523158
-0.00338555
0.0503788
-0.00346402
0.0484325
-0.00347633
0.0465048
-0.00342544
0.0446235
-0.00331563
0.0428158
-0.00315278
0.0411066
-0.00294422
0.0395182
-0.0026984
0.0380693
-0.00242443
0.0367741
-0.00213167
0.0356421
-0.00182929
0.0346779
-0.0015259
0.0338813
-0.00122928
0.0332477
-0.000946193
0.0327689
-0.000682344
0.0324336
-0.000442347
0.0322279
-0.000229773
0.0321367
-4.7226e-05
0.0321436
0.000103554
0.0322323
0.000221642
0.0323863
0.000306815
0.0325899
0.000359493
0.032828
0.000380566
0.0330865
0.000371116
0.0333522
0.000332841
0.0336137
0.000269406
0.000203868
0.0338717
0.0461278
-0.00140432
-0.047517
0.0446502
-0.00155367
0.0430929
-0.00168274
0.0414794
-0.00177205
0.0398356
-0.00182024
0.0381877
-0.00182849
0.0365617
-0.00179941
0.0349826
-0.00173652
0.0334739
-0.00164413
0.0320569
-0.00152722
0.0307497
-0.00139116
0.0295667
-0.00124142
0.0285184
-0.00108332
0.0276109
-0.000921843
0.0268464
-0.000761453
0.0262232
-0.000606061
0.025736
-0.000458984
0.0253767
-0.000322975
0.0251346
-0.000200274
0.0249975
-9.26691e-05
0.0249517
-1.49229e-06
0.024983
7.22666e-05
0.0250767
0.000127926
0.0252184
0.000165166
0.0253939
0.000184003
0.0255897
0.00018471
0.0257931
0.000167733
0.025992
0.000134007
0.0261759
8.55057e-05
3.46101e-05
0.0263451
0.0320895
-0.000398884
-0.0330949
0.0310056
-0.000469828
0.0298526
-0.000529693
0.0286512
-0.000570714
0.0274244
-0.000593381
0.0261949
-0.000599045
0.0249851
-0.000589625
0.0238159
-0.000567232
0.0227058
-0.00053412
0.0216712
-0.000492609
0.0207251
-0.000444981
0.019877
-0.000393386
0.0191335
-0.000339764
0.0184974
-0.000285806
0.0179689
-0.000232939
0.0175452
-0.000182345
0.0172212
-0.000134986
0.0169899
-9.16532e-05
0.0168426
-5.3006e-05
0.0167696
-1.97093e-05
0.0167606
7.599e-06
0.0168031
2.97511e-05
0.016886
4.50246e-05
0.0169975
5.35985e-05
0.0171262
5.53069e-05
0.0172609
5.00141e-05
0.0173911
3.76011e-05
0.017507
1.80549e-05
0.0176008
-8.2793e-06
-3.52205e-05
0.0176706
0.0141547
-0.0145536
0.0136849
0.0131552
0.0125845
0.0119911
0.0113921
0.0108024
0.0102352
0.00970108
0.00920847
0.00876349
0.0083701
0.00803034
0.00774453
0.00751159
0.00732925
0.00719426
0.00710261
0.0070496
0.00702989
0.00703749
0.00706724
0.00711227
0.00716587
0.00722117
0.00727119
0.00730879
0.00732684
0.00731856
0.00728334
0.351224
-0.178773
0.333836
-0.177218
0.317075
-0.174907
0.300818
-0.172324
0.284958
-0.169506
0.26941
-0.16646
0.254119
-0.163203
0.239054
-0.159747
0.224199
-0.1561
0.209547
-0.15227
0.195102
-0.148261
0.18087
-0.144078
0.166868
-0.139724
0.153112
-0.135199
0.139625
-0.130501
0.126431
-0.125624
0.113559
-0.120558
0.101039
-0.115291
0.0889073
-0.109805
0.0772
-0.104077
0.0659595
-0.0980748
0.0552342
-0.0917581
0.0450799
-0.085071
0.0355631
-0.0779371
0.0267661
-0.0702475
0.0187965
-0.0618413
0.0118041
-0.0524708
0.0060172
-0.0417301
0.00183753
-0.0289152
-0.0127161
0.334628
-0.162156
0.318166
-0.160757
0.302123
-0.158864
0.28643
-0.156631
0.271028
-0.154104
0.255885
-0.151317
0.240979
-0.148298
0.2263
-0.145068
0.211845
-0.141645
0.197615
-0.13804
0.18362
-0.134266
0.169873
-0.130331
0.156389
-0.126241
0.143187
-0.121998
0.130288
-0.117602
0.117714
-0.11305
0.105491
-0.108335
0.0936461
-0.103446
0.0822088
-0.0983676
0.0712123
-0.09308
0.0606932
-0.0875558
0.0506938
-0.0817587
0.0412629
-0.0756402
0.0324594
-0.0691335
0.0243564
-0.0621445
0.0170503
-0.0545353
0.0106761
-0.0460966
0.00543802
-0.036492
0.0016795
-0.0251567
-0.0110366
0.317358
-0.146419
0.301795
-0.145194
0.286489
-0.143558
0.271429
-0.141572
0.256603
-0.139278
0.242
-0.136714
0.227617
-0.133915
0.213454
-0.130906
0.199518
-0.127709
0.185819
-0.124341
0.172371
-0.120818
0.159188
-0.117148
0.146288
-0.113341
0.13369
-0.109399
0.121414
-0.105325
0.10948
-0.101117
0.0979124
-0.0967673
0.0867352
-0.0922686
0.0759753
-0.0876076
0.0656619
-0.0827666
0.055828
-0.0777218
0.046511
-0.0724417
0.0377547
-0.0668839
0.029612
-0.0609908
0.0221488
-0.0546813
0.0154521
-0.0478386
0.00964311
-0.0402876
0.00490277
-0.0317516
0.00152372
-0.0217777
-0.00951285
0.300885
-0.131446
0.28605
-0.130358
0.271387
-0.128894
0.256905
-0.127091
0.242615
-0.124987
0.228524
-0.122624
0.214644
-0.120034
0.200987
-0.117248
0.187565
-0.114287
0.174395
-0.111171
0.161492
-0.107915
0.148874
-0.10453
0.136556
-0.101024
0.124559
-0.0974017
0.112899
-0.0936655
0.101596
-0.0898138
0.0906707
-0.0858422
0.0801451
-0.081743
0.0700427
-0.0775052
0.0603894
-0.0731133
0.0512145
-0.0685469
0.0425512
-0.0637784
0.0344388
-0.0587715
0.0269246
-0.0534766
0.020068
-0.0478247
0.0139472
-0.0417177
0.00866989
-0.0350103
0.00439441
-0.0274762
0.00136763
-0.0187509
-0.00814521
0.28516
-0.117107
0.270923
-0.116121
0.256814
-0.114786
0.242857
-0.113134
0.229074
-0.111204
0.215484
-0.109034
0.202106
-0.106656
0.188958
-0.1041
0.176059
-0.101387
0.163424
-0.0985368
0.151072
-0.095563
0.13902
-0.0924773
0.127284
-0.0892874
0.11588
-0.0859982
0.104827
-0.0826117
0.0941399
-0.0791271
0.0838385
-0.0755408
0.0739417
-0.0718462
0.0644704
-0.0680339
0.0554477
-0.0640906
0.0468995
-0.0599986
0.0388554
-0.0557343
0.0313504
-0.0512666
0.0244271
-0.0465532
0.0181386
-0.0415362
0.0125546
-0.0361337
0.00777007
-0.0302259
0.003922
-0.0236281
0.00121772
-0.0160466
-0.00692749
0.270158
-0.103307
0.25644
-0.102403
0.242836
-0.101182
0.229375
-0.0996734
0.216086
-0.0979141
0.202992
-0.09594
0.190118
-0.0937821
0.177484
-0.091466
0.165109
-0.089013
0.153013
-0.0864404
0.141211
-0.0837616
0.129721
-0.0809871
0.118558
-0.078124
0.107737
-0.0751769
0.0972725
-0.0721477
0.0871813
-0.0690359
0.077479
-0.0658385
0.0681828
-0.06255
0.059311
-0.0591622
0.0508842
-0.0556638
0.0429252
-0.0520396
0.0354606
-0.0482697
0.0285216
-0.0443276
0.0221462
-0.0401778
0.016382
-0.035772
0.0112904
-0.0310422
0.00695482
-0.0258903
0.00349291
-0.0201662
0.00107899
-0.0136327
-0.0058485
0.25588
-0.0899906
0.242643
-0.089166
0.229518
-0.0880574
0.216539
-0.0866944
0.203737
-0.0851117
0.191138
-0.0833417
0.178769
-0.0814123
0.166649
-0.0793467
0.1548
-0.0771638
0.143239
-0.074879
0.131982
-0.0725044
0.121044
-0.0700492
0.110439
-0.0675197
0.100182
-0.0649199
0.0902863
-0.0622517
0.0807649
-0.0595145
0.0716325
-0.056706
0.0629041
-0.0538216
0.054596
-0.0508541
0.0467264
-0.0477942
0.0393157
-0.0446289
0.0323874
-0.0413415
0.0259696
-0.0379098
0.020096
-0.0343042
0.0148089
-0.0304848
0.0101626
-0.0263959
0.00622971
-0.0219574
0.00311136
-0.0170478
0.00095463
-0.011476
-0.00489387
0.242341
-0.0771326
0.229567
-0.0763918
0.216911
-0.075402
0.204409
-0.0741926
0.192093
-0.0727952
0.17999
-0.0712384
0.168124
-0.0695466
0.156517
-0.06774
0.145188
-0.065835
0.134154
-0.0638449
0.12343
-0.0617801
0.113029
-0.0596484
0.102965
-0.0574554
0.0932496
-0.0552045
0.0838951
-0.0528972
0.0749138
-0.0505332
0.0663181
-0.0481104
0.0581214
-0.0456249
0.0503382
-0.0430709
0.0429846
-0.0404405
0.0360787
-0.037723
0.0296416
-0.0349044
0.0236982
-0.0319664
0.0182787
-0.0288848
0.0134206
-0.0256267
0.00917164
-0.0221469
0.00559519
-0.0183809
0.00277835
-0.014231
0.000845978
-0.0095436
-0.00404789
0.229553
-0.064726
0.217238
-0.0640766
0.205051
-0.0632147
0.193026
-0.0621681
0.181196
-0.0609647
0.169586
-0.0596291
0.158222
-0.0581818
0.147122
-0.05664
0.136304
-0.0550176
0.125785
-0.0533256
0.115578
-0.0515727
0.105694
-0.0497654
0.0961474
-0.0479084
0.0869472
-0.0460044
0.0781047
-0.0440547
0.0696306
-0.0420591
0.0615361
-0.0400159
0.053833
-0.0379218
0.0465342
-0.0357721
0.039654
-0.0335603
0.0332085
-0.0312776
0.0272168
-0.0289126
0.021701
-0.0264506
0.016688
-0.0238718
0.0122111
-0.0211498
0.00831268
-0.0182485
0.00504797
-0.0151162
0.00249247
-0.0116755
0.000753056
-0.00780418
-0.00329483
0.217521
-0.052773
0.205668
-0.0522231
0.193951
-0.0514978
0.182405
-0.0506221
0.17106
-0.0496196
0.159941
-0.0485106
0.149071
-0.047312
0.138469
-0.0460378
0.128151
-0.0446992
0.11813
-0.0433052
0.108421
-0.0418629
0.0990327
-0.0403775
0.089977
-0.0388526
0.0812633
-0.0372906
0.0729011
-0.0356925
0.0649001
-0.0340581
0.0572701
-0.0323859
0.0500218
-0.0306734
0.0431665
-0.0289169
0.0367172
-0.027111
0.0306884
-0.0252488
0.0250971
-0.0233213
0.0199631
-0.0213166
0.0153107
-0.0192194
0.0111695
-0.0170087
0.00757706
-0.014656
0.00458212
-0.0121213
0.0022506
-0.00934395
0.000675018
-0.0062286
-0.00261981
0.206236
-0.0412798
0.19485
-0.0408362
0.183606
-0.0402542
0.172539
-0.0395549
0.161676
-0.0387572
0.151043
-0.0378772
0.140659
-0.0369282
0.130542
-0.0359209
0.120708
-0.0348643
0.111168
-0.0337652
0.101934
-0.0326292
0.0930164
-0.0314601
0.0844248
-0.030261
0.0761677
-0.0290335
0.0682537
-0.0277785
0.0606913
-0.0264957
0.0534895
-0.0251841
0.0466578
-0.0238417
0.0402064
-0.0224655
0.0341471
-0.0210516
0.0284929
-0.0195946
0.0232591
-0.0180875
0.0184639
-0.0165214
0.0141289
-0.0148844
0.0102809
-0.0131606
0.00695346
-0.0113286
0.00418992
-0.00935775
0.00204854
-0.00720257
0.000610501
-0.00479056
-0.00200931
0.195675
-0.0302528
0.184759
-0.0299201
0.17399
-0.0294851
0.163399
-0.0289646
0.153015
-0.0283725
0.142858
-0.0277207
0.132949
-0.0270189
0.123303
-0.0262751
0.113934
-0.0254955
0.104855
-0.0246854
0.0960739
-0.0238486
0.0876019
-0.0229881
0.0794468
-0.0221059
0.0716166
-0.0212034
0.064119
-0.020281
0.056962
-0.0193386
0.0501534
-0.0183755
0.0437019
-0.0173902
0.037617
-0.0163806
0.0319092
-0.0153438
0.0265904
-0.0142759
0.0216747
-0.0131718
0.0171786
-0.0120252
0.0131217
-0.0108275
0.00952842
-0.00956735
0.00642906
-0.00822922
0.0038627
-0.00679139
0.0018815
-0.00522136
0.000557881
-0.00346695
-0.00145143
0.1858
-0.0196967
0.175357
-0.0194764
0.165061
-0.0191893
0.154943
-0.0188468
0.145028
-0.0184579
0.135338
-0.0180305
0.12589
-0.0175708
0.116699
-0.017084
0.107778
-0.0165742
0.0991368
-0.0160447
0.0907863
-0.015498
0.0827344
-0.0149361
0.0749888
-0.0143603
0.0675569
-0.0137714
0.0604457
-0.0131698
0.0536624
-0.0125553
0.0472144
-0.0119275
0.0411096
-0.0112854
0.0353566
-0.0106277
0.0299652
-0.00995238
0.0249465
-0.00925709
0.0203132
-0.00853857
0.0160806
-0.00779261
0.0122668
-0.00701376
0.00889416
-0.00619472
0.00599051
-0.00532557
0.0035915
-0.00439238
0.00174454
-0.00337439
0.000515459
-0.00223787
-0.000935972
0.176566
-0.00961259
0.166593
-0.00950389
0.156767
-0.00936261
0.147114
-0.00919433
0.13766
-0.00900356
0.128423
-0.00879405
0.119421