/*--------------------------------*- C++ -*----------------------------------*\
  =========                 |
  \\      /  F ield         | OpenFOAM: The Open Source CFD Toolbox
   \\    /   O peration     | Website:  https://openfoam.org
    \\  /    A nd           | Version:  12
     \\/     M anipulation  |
\*---------------------------------------------------------------------------*/
FoamFile
{
    format      ascii;
    class       volScalarField;
    location    "180";
    object      pMean;
}
// * * * * * * * * * * * * * * * * * * * * * * * * * * * * * * * * * * * * * //

dimensions      [0 2 -2 0 0 0 0];

internalField   nonuniform List<scalar> 
6750
(
0.00247474
0.0024453
0.00239266
0.00220889
0.00126237
0.00423936
0.00421563
0.00410456
0.00385531
0.00352488
0.00624423
0.00619928
0.00608532
0.0059028
0.00576938
0.00831255
0.00823287
0.00812491
0.00799917
0.00793953
0.01035
0.0102266
0.0101094
0.0100124
0.00999115
0.0122771
0.0121057
0.0119689
0.0118838
0.0118818
0.0140451
0.0138243
0.0136644
0.0135846
0.0135938
0.0156244
0.0153551
0.015172
0.0150959
0.015113
0.0169964
0.0166811
0.0164769
0.0164042
0.0164279
0.0181512
0.0177938
0.0175716
0.0175026
0.0175316
0.0190861
0.018692
0.0184554
0.0183904
0.0184235
0.0198052
0.0193806
0.0191337
0.0190728
0.0191088
0.020319
0.01987
0.0196177
0.0195604
0.0195981
0.0206432
0.0201754
0.0199237
0.0198684
0.0199063
0.0207922
0.0203187
0.0200724
0.0200151
0.0200513
0.0207924
0.0203189
0.0200726
0.0200153
0.0200515
0.0206438
0.0201761
0.0199243
0.019869
0.0199069
0.0203201
0.019871
0.0196187
0.0195614
0.0195991
0.0198066
0.019382
0.0191352
0.0190743
0.0191103
0.0190878
0.0186937
0.0184572
0.0183923
0.0184253
0.0181533
0.017796
0.0175738
0.0175048
0.0175338
0.0169989
0.0166835
0.0164794
0.0164067
0.0164304
0.0156271
0.0153578
0.0151749
0.0150987
0.0151159
0.0140481
0.0138274
0.0136675
0.0135878
0.013597
0.0122804
0.0121089
0.0119722
0.0118871
0.0118852
0.0103534
0.0102301
0.010113
0.010016
0.00999472
0.00831611
0.00823646
0.00812855
0.00800286
0.0079432
0.00624787
0.00620294
0.00608903
0.00590654
0.00577307
0.00424303
0.00421932
0.00410828
0.00385904
0.00352851
0.0024784
0.00244898
0.00239636
0.00221257
0.00126599
-0.00436639
-0.00386241
-0.00256248
-0.00161629
-0.000940349
-0.000404915
1.82546e-05
0.000346177
0.000605227
0.000800152
0.000924703
0.00103058
0.0010992
0.00112888
0.00111742
0.00105938
0.000948896
0.00078364
0.000561368
0.000278947
-6.50484e-05
-0.000393686
-0.000755965
-0.00113824
-0.00152446
-0.00190493
-0.00227179
-0.00260664
-0.00289909
-0.00329482
-0.000712599
-2.77908e-05
0.000672546
0.00100709
0.00118989
0.00130139
0.00134582
0.00133666
0.00129694
0.00121608
0.00109698
0.00101206
0.000936617
0.000875061
0.000825521
0.000778352
0.000719814
0.000636267
0.000514458
0.000347631
0.000142808
-0.0001584
-0.000483617
-0.000846101
-0.00123956
-0.00165472
-0.00208495
-0.00251259
-0.00288755
-0.00327106
0.00171322
0.00186426
0.00214269
0.00226678
0.00232311
0.0023247
0.00226237
0.00214869
0.00199709
0.00177582
0.00151979
0.0012803
0.00103504
0.000795392
0.000567121
0.000350202
0.00014093
-6.69031e-05
-0.000280552
-0.000506913
-0.000750489
-0.00100994
-0.00128872
-0.00158726
-0.00190292
-0.00223216
-0.0025757
-0.00292342
-0.00319541
-0.00336955
0.00321025
0.0030099
0.00313129
0.00319993
0.00320369
0.00314301
0.00301445
0.00283224
0.00259811
0.00226503
0.00190429
0.00153142
0.001135
0.000731303
0.000332234
-5.36657e-05
-0.000420573
-0.000765699
-0.0010889
-0.00139263
-0.00168018
-0.00194968
-0.00220894
-0.00246244
-0.00271265
-0.00296163
-0.00321709
-0.00347721
-0.00363593
-0.00355948
0.0043926
0.00407142
0.00412548
0.00413578
0.00406892
0.00393201
0.00372596
0.00346181
0.00313031
0.0026884
0.00222111
0.00171959
0.00118535
0.000637746
9.30254e-05
-0.000434378
-0.000932325
-0.00139201
-0.00180837
-0.00218024
-0.00250944
-0.00279873
-0.00305401
-0.00328231
-0.00348982
-0.00368262
-0.00387407
-0.00406988
-0.00414093
-0.00382772
0.00545248
0.00510464
0.00510474
0.00504621
0.00490391
0.00468902
0.00440278
0.00405148
0.00361367
0.00306753
0.00249005
0.00186373
0.0011997
0.000519686
-0.000156461
-0.000809822
-0.00142372
-0.0019852
-0.0024859
-0.00292225
-0.00329504
-0.00360832
-0.00386862
-0.00408444
-0.00426422
-0.00441675
-0.00456009
-0.00470567
-0.00470496
-0.00417662
0.00642115
0.00608344
0.00603301
0.00590715
0.00569364
0.0054038
0.00503931
0.00460089
0.00405346
0.00340922
0.00272149
0.00197502
0.00118751
0.000382749
-0.000416173
-0.00118666
-0.00190844
-0.00256538
-0.00314655
-0.00364659
-0.00406544
-0.00440726
-0.00467952
-0.00489188
-0.0050543
-0.00517762
-0.00528395
-0.00538871
-0.00532549
-0.0046061
0.00731673
0.00701091
0.00691528
0.00672498
0.00644308
0.00607958
0.00563778
0.00511084
0.00445491
0.00371724
0.00291968
0.00205705
0.0011513
0.00022802
-0.000686857
-0.00156767
-0.00239123
-0.00313884
-0.00379752
-0.00436052
-0.00482702
-0.00520118
-0.00549106
-0.00570722
-0.00586073
-0.00596428
-0.00604297
-0.00611545
-0.00599777
-0.00511281
0.00815861
0.00789933
0.00776228
0.00750856
0.00715888
0.00672267
0.00620251
0.00558258
0.0048253
0.00399391
0.00308743
0.00211203
0.00109231
5.54889e-05
-0.000969931
-0.00195568
-0.00287616
-0.0037106
-0.00444438
-0.0050696
-0.00558487
-0.0059943
-0.00630635
-0.00653226
-0.00668395
-0.0067756
-0.00683502
-0.00688243
-0.00671723
-0.00569228
0.00896169
0.00875758
0.00858114
0.00826429
0.00784668
0.00733857
0.00673856
0.00602019
0.0051695
0.00424139
0.00322756
0.00214217
0.00101166
-0.000134983
-0.00126696
-0.00235372
-0.00336764
-0.00428618
-0.0050934
-0.0057805
-0.00634559
-0.00679275
-0.00713073
-0.00737126
-0.00752713
-0.00761343
-0.00766091
-0.00768968
-0.00748242
-0.00634047
0.00973669
0.00959303
0.00937901
0.00899799
0.00851125
0.00793125
0.00724982
0.00643018
0.00549089
0.00446346
0.00334318
0.00214951
0.000910269
-0.000343728
-0.00157961
-0.00276482
-0.00386994
-0.00487098
-0.00575084
-0.00649998
-0.00711611
-0.00760327
-0.00797044
-0.0082298
-0.00839467
-0.00848127
-0.00852292
-0.00853845
-0.00829354
-0.00705449
0.0104926
0.0104128
0.0101624
0.00971601
0.00915893
0.00850602
0.00773871
0.00681973
0.00579231
0.00466343
0.00343694
0.00213571
0.000788756
-0.000571297
-0.00190964
-0.00319196
-0.00438725
-0.0054702
-0.00642274
-0.00723467
-0.00790336
-0.00843282
-0.00883222
-0.00911409
-0.00929225
-0.00938403
-0.00942493
-0.00943195
-0.00915309
-0.00783309
0.011238
0.0112242
0.0109386
0.0104254
0.00979726
0.00906754
0.00820763
0.00719614
0.00607638
0.00484425
0.00351116
0.00210213
0.000647454
-0.000818468
-0.00225903
-0.00363829
-0.00492379
-0.00608907
-0.00711516
-0.00799126
-0.00871447
-0.00928873
-0.00972339
-0.0100313
-0.0102266
-0.0103279
-0.0103728
-0.0103755
-0.0100656
-0.00867705
0.0119814
0.0120345
0.0117148
0.011133
0.0104321
0.00962231
0.00866419
0.00756384
0.00634645
0.00500901
0.00356803
0.00204992
0.000486447
-0.00108628
-0.00262996
-0.00410711
-0.00548398
-0.00673299
-0.00783436
-0.00877676
-0.00955697
-0.0101789
-0.0106521
-0.0109895
-0.0112059
-0.0113207
-0.0113739
-0.0113762
-0.0110374
-0.00958947
0.0127297
0.0128536
0.0125005
0.011848
0.0110707
0.0101746
0.00911728
0.00792659
0.00660657
0.00516096
0.00360961
0.00198006
0.000305568
-0.00137605
-0.00302491
-0.00460208
-0.00607256
-0.00740774
-0.00858706
-0.00959865
-0.010439
-0.011112
-0.0116272
-0.011998
-0.0122392
-0.0123717
-0.0124375
-0.0124429
-0.0120774
-0.0105761
0.0134906
0.013693
0.0133078
0.0125818
0.0117212
0.0107288
0.0095762
0.00828844
0.00686075
0.00530326
0.00363786
0.00189329
0.00010437
-0.00168946
-0.0034468
-0.00512731
-0.0066948
-0.00811967
-0.00938061
-0.0104652
-0.0113697
-0.0120977
-0.0126591
-0.0130672
-0.0133375
-0.013492
-0.0135747
-0.0135869
-0.0131964
-0.0116454
0.0142744
0.014566
0.0141489
0.0133446
0.0123927
0.0112953
0.0100479
0.00865454
0.00711351
0.00543916
0.00365471
0.0017902
-0.000117923
-0.00202865
-0.00389908
-0.00568756
-0.00735672
-0.00887599
-0.0102233
-0.0113857
-0.0123591
-0.0131471
-0.0137595
-0.0142098
-0.0145137
-0.0146949
-0.0147992
-0.0148219
-0.0144081
-0.0128094
0.0150984
0.0154863
0.0150387
0.0141458
0.0130914
0.0118884
0.0105389
0.00903126
0.00736997
0.00557211
0.00366201
0.00167112
-0.000362521
-0.00239634
-0.00438598
-0.00628849
-0.00806534
-0.00968504
-0.0111247
-0.0123709
-0.0134192
-0.014273
-0.0149421
-0.0154401
-0.0157831
-0.0159962
-0.0161275
-0.0161651
-0.0157299
-0.0140839
0.0159838
0.0164674
0.0159904
0.0150008
0.0138304
0.0125204
0.0110567
0.0094255
0.00763563
0.0057058
0.00366161
0.00153606
-0.000631213
-0.00279607
-0.00491274
-0.00693698
-0.00882914
-0.0105568
-0.0120963
-0.0134336
-0.0145639
-0.0154906
-0.0162232
-0.0167757
-0.0171642
-0.0174155
-0.0175796
-0.0176371
-0.0171826
-0.0154894
0.0169511
0.0175325
0.0170243
0.0159247
0.0146288
0.0132028
0.0116123
0.00984637
0.00791704
0.00584433
0.00365529
0.00138456
-0.00092661
-0.00323255
-0.00548606
-0.00764163
-0.00965852
-0.0115034
-0.0131518
-0.0145892
-0.0158103
-0.0168183
-0.0176227
-0.0182375
-0.0186791
-0.0189761
-0.0191802
-0.0192637
-0.0187931
-0.0170525
0.0180299
0.0187125
0.0181643
0.0169374
0.0155106
0.0139516
0.012219
0.0103045
0.0082217
0.0059922
0.00364468
0.00121547
-0.00125253
-0.00371211
-0.00611467
-0.00841347
-0.0105667
-0.0125401
-0.0143085
-0.0158568
-0.0171793
-0.0182789
-0.0191652
-0.0198519
-0.0203558
-0.0207077
-0.020961
-0.0210776
-0.0205949
-0.0188074
0.0192625
0.020038
0.0194373
0.0180738
0.0165002
0.0147871
0.0128939
0.0108127
0.00855838
0.00615433
0.00363101
0.00102651
-0.00161458
-0.00424351
-0.0068103
-0.00926701
-0.0115708
-0.0136866
-0.0155886
-0.017261
-0.0186977
-0.0199015
-0.0208817
-0.0216521
-0.0222298
-0.0226473
-0.0229603
-0.0231199
-0.0226311
-0.0207987
0.0207015
0.021559
0.020891
0.0193761
0.0176285
0.015736
0.0136582
0.0113866
0.00893747
0.00633603
0.00361475
0.000813588
-0.00202114
-0.00483914
-0.00758909
-0.0102219
-0.0126939
-0.0149691
-0.0170211
-0.0188337
-0.0204005
-0.0217238
-0.0228129
-0.0236813
-0.024347
-0.0248439
-0.0252298
-0.0254448
-0.0249588
-0.0230862
0.0224235
0.0233461
0.0225923
0.0208942
0.0189376
0.0168331
0.0145391
0.0120461
0.00937143
0.00654283
0.0035949
0.000569584
-0.00248501
-0.00551704
-0.00847392
-0.0113056
-0.0139675
-0.0164232
-0.0186458
-0.0206185
-0.0223346
-0.0237964
-0.0250128
-0.0259973
-0.0267683
-0.0273619
-0.0278375
-0.0281236
-0.0276539
-0.0257502
0.0245491
0.0255022
0.0246245
0.0226968
0.0204862
0.0181259
0.015573
0.0128164
0.00987533
0.00678003
0.00356762
0.000282218
-0.00302622
-0.00630434
-0.00949843
-0.0125577
-0.015437
-0.0180996
-0.0205182
-0.0226759
-0.0245657
-0.0261896
-0.0275564
-0.0286796
-0.029578
-0.0302904
-0.0308769
-0.0312542
-0.0308202
-0.0289029
0.027235
0.0281728
0.0271084
0.0248868
0.022359
0.0196819
0.0168103
0.0137318
0.0104678
0.00705178
0.00352371
-6.99131e-05
-0.0036772
-0.0072434
-0.010714
-0.0140378
-0.0171697
-0.0200728
-0.02272
-0.0250944
-0.0271888
-0.029005
-0.0305518
-0.0318424
-0.0328962
-0.0337545
-0.0344796
-0.034975
-0.0346065
-0.032706
0.0307639
0.0315806
0.030229
0.0276197
0.0246846
0.0216015
0.0183236
0.0148383
0.0111705
0.00735722
0.00344201
-0.000525972
-0.00449297
-0.0084033
-0.0122023
-0.0158391
-0.0192695
-0.0224574
-0.0253763
-0.0280096
-0.0303502
-0.0323996
-0.0341663
-0.0356631
-0.0369098
-0.0379495
-0.0388459
-0.0394943
-0.0392352
-0.0374062
0.0356052
0.0360846
0.0342609
0.031118
0.027641
0.024019
0.0202057
0.0161906
0.0120027
0.00768402
0.00328207
-0.00115098
-0.00555981
-0.00988852
-0.0140834
-0.0180957
-0.0218832
-0.0254122
-0.0286578
-0.0316046
-0.0342462
-0.0365841
-0.0386261
-0.0403846
-0.0418792
-0.0431537
-0.0442713
-0.0451261
-0.0450608
-0.0434182
0.0426732
0.0424264
0.0398362
0.0359551
0.0317315
0.0273446
0.0227593
0.0179788
0.0130444
0.00800801
0.00292464
-0.002149
-0.00715609
-0.012042
-0.0167563
-0.0212547
-0.0254999
-0.0294628
-0.0331215
-0.0364617
-0.0394807
-0.0421837
-0.0445692
-0.0466483
-0.0484393
-0.0499818
-0.0513342
-0.0524071
-0.0526212
-0.0513731
0.0551473
0.0531653
0.0489257
0.0437241
0.0382474
0.0325932
0.0267545
0.0207667
0.0146897
0.00858626
0.00251612
-0.00346466
-0.00930499
-0.0149599
-0.0203912
-0.0255674
-0.0304635
-0.0350595
-0.0393421
-0.043302
-0.0469294
-0.0502175
-0.0531776
-0.0558129
-0.058131
-0.0601561
-0.0619354
-0.0634516
-0.0643419
-0.0639197
-0.000947482
8.52512e-05
0.00186173
0.00330314
0.00453888
0.0057032
0.00682583
0.00791439
0.00897819
0.0100267
0.0110689
0.0121135
0.0131701
0.014249
0.015361
0.0165188
0.017738
0.0190374
0.0204389
0.0219678
0.0236576
0.0255522
0.0277067
0.0301961
0.0331231
0.0366392
0.0409486
0.0463201
0.0529575
0.0617184
0.00343558
0.00449781
0.00569667
0.00671665
0.0076451
0.00854149
0.00941699
0.0102761
0.0111261
0.0119752
0.0128316
0.0137034
0.0145993
0.0155288
0.0165023
0.0175324
0.0186341
0.0198259
0.0211299
0.0225741
0.0241947
0.0260397
0.0281726
0.030681
0.033688
0.0373746
0.0420002
0.0479466
0.0557
0.0661609
0.00592285
0.00687528
0.00780438
0.00864627
0.00947054
0.0102949
0.011117
0.0119381
0.0127637
0.0135997
0.0144528
0.01533
0.0162393
0.0171894
0.0181909
0.019256
0.0204
0.0216416
0.0230041
0.024517
0.0262192
0.028162
0.0304148
0.033074
0.0362761
0.0402192
0.0451954
0.0516422
0.060213
0.0718974
0.00811377
0.00895633
0.00977031
0.0105312
0.0112898
0.0120576
0.0128343
0.0136231
0.0144294
0.0152593
0.0161188
0.0170151
0.0179557
0.0189497
0.0200077
0.0211425
0.0223697
0.0237089
0.0251846
0.0268281
0.0286805
0.0307965
0.0332496
0.0361418
0.0396173
0.0438834
0.0492459
0.0561549
0.0653517
0.0778549
0.0101603
0.0109075
0.0116298
0.0123176
0.0130146
0.013732
0.0144712
0.0152353
0.0160293
0.0168585
0.0177286
0.0186464
0.0196196
0.0206573
0.0217703
0.0229722
0.0242791
0.0257118
0.0272959
0.0290647
0.0310617
0.0333441
0.0359894
0.0391041
0.0428378
0.047405
0.0531202
0.0604407
0.0701892
0.0834289
0.0120317
0.0126934
0.0133368
0.0139627
0.0146105
0.0152903
0.0160031
0.0167518
0.0175406
0.0183745
0.0192589
0.0202003
0.0212064
0.0222864
0.0234515
0.0247153
0.026095
0.0276117
0.0292925
0.0311721
0.0332956
0.0357227
0.0385339
0.0418394
0.0457933
0.0506161
0.0566307
0.0643051
0.0745417
0.0884798
0.0137221
0.0143068
0.0148827
0.0154577
0.0160669
0.0167182
0.0174125
0.0181521
0.0189408
0.0197832
0.0206845
0.021651
0.0226902
0.0238114
0.025026
0.0263479
0.0277946
0.0293881
0.0311562
0.0331346
0.03537
0.037924
0.040879
0.0443483
0.0484897
0.0535285
0.0597956
0.0677704
0.0784213
0.0929789
0.015225
0.0157402
0.016258
0.0167913
0.0173698
0.0179997
0.0186811
0.0194162
0.0202083
0.0210614
0.0219806
0.0229719
0.0240429
0.0252027
0.0264629
0.0278378
0.029345
0.0310072
0.0328529
0.0349186
0.037252
0.0399161
0.0429953
0.0466048
0.0509053
0.0561262
0.0626052
0.0708323
0.0818238
0.0968997
0.016531
0.0169839
0.0174523
0.0179518
0.0185065
0.0191204
0.0197933
0.020527
0.0213243
0.0221889
0.0231255
0.02414
0.0252399
0.0264345
0.0277353
0.0291567
0.0307169
0.0324387
0.0343512
0.0364918
0.0389089
0.0416664
0.0448501
0.048577
0.0530102
0.0583819
0.0650357
0.0734704
0.0847357
0.100227
0.0176329
0.0180312
0.0184586
0.0189313
0.0194678
0.0200701
0.0207377
0.0214719
0.0222751
0.0231507
0.0241032
0.0251384
0.0262636
0.0274881
0.0288235
0.0302845
0.0318893
0.0336612
0.0356296
0.0378323
0.0403185
0.0431529
0.0464222
0.0502448
0.0547854
0.0602787
0.0670729
0.0756739
0.0871499
0.102971
0.0185282
0.0188801
0.0192747
0.019727
0.02025
0.020844
0.0215084
0.022244
0.023053
0.0239385
0.0249047
0.0259572
0.0271035
0.0283526
0.0297165
0.0312096
0.0328506
0.0346629
0.0366761
0.0389286
0.0414699
0.0443653
0.0477024
0.0516004
0.0562253
0.0618135
0.068717
0.0774464
0.0890767
0.105161
0.0192195
0.0195343
0.0199038
0.0203412
0.0208545
0.0214429
0.0221054
0.0228428
0.0236568
0.0245503
0.0255275
0.0265939
0.0277566
0.0290251
0.030411
0.031929
0.0335979
0.0354412
0.0374888
0.0397792
0.0423625
0.0453043
0.0486926
0.0526473
0.0573356
0.0629947
0.0699799
0.0788038
0.0905426
0.106829
0.0197153
0.0200024
0.0203542
0.0207813
0.021288
0.0218727
0.0225343
0.0232733
0.0240912
0.0249908
0.0259761
0.0270526
0.0282274
0.0295098
0.0309116
0.0324476
0.0341364
0.0360019
0.038074
0.0403915
0.0430046
0.0459793
0.0494039
0.0533988
0.0581317
0.0638405
0.070883
0.0797717
0.0915828
0.108015
0.0200284
0.0202975
0.0206382
0.0210591
0.0215618
0.0221444
0.0228056
0.0235458
0.0243663
0.02527
0.0262605
0.0273435
0.028526
0.0298174
0.0312294
0.0327767
0.0344783
0.0363579
0.0384456
0.0407803
0.0434122
0.0464077
0.0498552
0.0538754
0.0586364
0.0643764
0.071455
0.0803827
0.0922327
0.10877
0.0201756
0.020436
0.0207714
0.0211894
0.0216903
0.022272
0.0229331
0.0236739
0.0244958
0.0254014
0.0263946
0.0274807
0.028667
0.0299626
0.0313794
0.0329323
0.03464
0.0365263
0.0386214
0.0409643
0.0436053
0.0466107
0.0500692
0.0541015
0.0588759
0.0646306
0.0717266
0.0806719
0.092534
0.109136
0.0201758
0.0204362
0.0207716
0.0211896
0.0216905
0.0222722
0.0229333
0.0236741
0.024496
0.0254016
0.0263948
0.0274809
0.0286671
0.0299628
0.0313796
0.0329324
0.0346401
0.0365264
0.0386216
0.0409644
0.0436054
0.0466108
0.0500693
0.0541016
0.058876
0.0646307
0.0717267
0.0806719
0.0925341
0.109136
0.0200291
0.0202982
0.0206388
0.0210597
0.0215624
0.022145
0.0228062
0.0235464
0.0243669
0.0252705
0.0262611
0.027344
0.0285266
0.0298179
0.0312298
0.0327772
0.0344787
0.0363582
0.0384459
0.0407806
0.0434125
0.046408
0.0498556
0.0538758
0.0586368
0.0643767
0.0714552
0.0803829
0.092233
0.10877
0.0197164
0.0200035
0.0203552
0.0207824
0.0212891
0.0218737
0.0225353
0.0232743
0.0240922
0.0249918
0.025977
0.0270535
0.0282282
0.0295106
0.0309123
0.0324482
0.0341371
0.0360025
0.0380746
0.0403921
0.0430051
0.0459798
0.0494045
0.0533994
0.0581323
0.0638411
0.0708834
0.079772
0.0915833
0.108016
0.019221
0.0195358
0.0199053
0.0203427
0.0208559
0.0214443
0.0221068
0.0228442
0.0236581
0.0245516
0.0255287
0.026595
0.0277578
0.0290262
0.030412
0.03193
0.0335988
0.035442
0.0374896
0.03978
0.0423632
0.045305
0.0486934
0.0526482
0.0573365
0.0629956
0.0699806
0.0788044
0.0905434
0.10683
0.0185301
0.018882
0.0192766
0.0197289
0.0202518
0.0208458
0.0215102
0.0222458
0.0230547
0.0239401
0.0249062
0.0259587
0.0271049
0.028354
0.0297177
0.0312108
0.0328518
0.034664
0.0366772
0.0389296
0.0414709
0.0443664
0.0477034
0.0516013
0.0562263
0.0618146
0.0687181
0.0774474
0.0890778
0.105162
0.0176352
0.0180334
0.0184608
0.0189335
0.01947
0.0200723
0.0207398
0.0214739
0.0222771
0.0231526
0.0241051
0.0251402
0.0262653
0.0274897
0.0288251
0.0302859
0.0318907
0.0336626
0.0356309
0.0378336
0.0403197
0.0431541
0.0464234
0.0502459
0.0547866
0.0602801
0.0670745
0.0756753
0.0871513
0.102972
0.0165336
0.0169865
0.0174549
0.0179543
0.0185089
0.0191228
0.0197957
0.0205293
0.0213265
0.022191
0.0231276
0.024142
0.0252418
0.0264363
0.027737
0.0291584
0.0307185
0.0324403
0.0343528
0.0364933
0.0389103
0.0416678
0.0448514
0.0485783
0.0530116
0.0583837
0.0650378
0.0734724
0.0847376
0.100228
0.0152279
0.0157431
0.0162609
0.0167941
0.0173726
0.0180024
0.0186838
0.0194188
0.0202108
0.0210638
0.0219829
0.0229741
0.024045
0.0252048
0.0264649
0.0278397
0.0293469
0.0310091
0.0328547
0.0349203
0.0372537
0.0399177
0.0429967
0.0466061
0.0509069
0.0561285
0.0626079
0.0708348
0.0818257
0.0969008
0.0137253
0.01431
0.0148859
0.0154608
0.0160699
0.0167212
0.0174154
0.0181549
0.0189436
0.0197859
0.0206871
0.0216535
0.0226926
0.0238137
0.0250282
0.02635
0.0277967
0.0293901
0.0311582
0.0331366
0.0353719
0.0379257
0.0408806
0.0443499
0.0484917
0.0535312
0.0597988
0.0677734
0.0784233
0.09298
0.0120351
0.0126968
0.0133402
0.013966
0.0146138
0.0152935
0.0160062
0.0167548
0.0175436
0.0183773
0.0192616
0.020203
0.021209
0.0222889
0.0234539
0.0247176
0.0260972
0.0276139
0.0292947
0.0311742
0.0332976
0.0357246
0.0385357
0.0418412
0.0457956
0.0506192
0.0566345
0.0643085
0.0745438
0.0884807
0.0101639
0.0109111
0.0116334
0.0123211
0.013018
0.0137354
0.0144745
0.0152386
0.0160325
0.0168616
0.0177316
0.0186493
0.0196224
0.02066
0.0217729
0.0229747
0.0242816
0.0257142
0.0272983
0.0290671
0.0310639
0.0333461
0.0359914
0.0391062
0.0428405
0.0474085
0.0531243
0.0604443
0.0701912
0.0834295
0.00811743
0.00896001
0.00977396
0.0105348
0.0112934
0.0120611
0.0128378
0.0136265
0.0144327
0.0152625
0.016122
0.0170182
0.0179587
0.0189526
0.0200105
0.0211452
0.0223723
0.0237115
0.0251871
0.0268306
0.0286829
0.0307987
0.0332518
0.0361444
0.0396204
0.0438873
0.0492502
0.0561584
0.0653535
0.0778552
0.00592651
0.006879
0.0078081
0.00864997
0.00947421
0.0102985
0.0111205
0.0119417
0.0127671
0.0136031
0.0144561
0.0153333
0.0162424
0.0171925
0.0181938
0.0192589
0.0204028
0.0216444
0.0230068
0.0245197
0.0262217
0.0281645
0.0304174
0.0330769
0.0362795
0.0402232
0.0451996
0.0516452
0.0602143
0.0718976
0.00343919
0.00450155
0.00570045
0.00672041
0.00764882
0.00854517
0.00942064
0.0102797
0.0111296
0.0119787
0.012835
0.0137068
0.0146026
0.015532
0.0165055
0.0175354
0.0186371
0.0198288
0.0211328
0.0225768
0.0241974
0.0260424
0.0281754
0.0306842
0.0336917
0.0373785
0.0420037
0.0479488
0.0557008
0.0661612
-0.000943743
8.91856e-05
0.00186561
0.00330693
0.0045426
0.00570686
0.00682944
0.00791795
0.00898169
0.0100302
0.0110722
0.0121168
0.0131734
0.0142522
0.0153641
0.0165218
0.0177408
0.0190401
0.0204415
0.0219704
0.0236602
0.0255548
0.0277095
0.0301995
0.0331267
0.0366425
0.0409511
0.0463212
0.0529579
0.0617189
0.0551482
0.0531665
0.0489265
0.0437247
0.0382479
0.0325939
0.0267551
0.020767
0.0146897
0.00858586
0.00251522
-0.0034661
-0.00930696
-0.0149624
-0.0203941
-0.0255708
-0.0304673
-0.0350636
-0.0393465
-0.0433067
-0.0469342
-0.0502224
-0.0531825
-0.0558179
-0.058136
-0.0601611
-0.0619405
-0.0634567
-0.0643474
-0.0639254
0.0426734
0.0424264
0.0398363
0.0359555
0.031732
0.0273451
0.0227595
0.0179788
0.0130439
0.00800709
0.00292326
-0.00215083
-0.00715836
-0.0120447
-0.0167594
-0.0212582
-0.0255037
-0.0294671
-0.033126
-0.0364664
-0.0394857
-0.0421888
-0.0445744
-0.0466535
-0.0484445
-0.049987
-0.0513393
-0.0524121
-0.0526261
-0.051378
0.0356058
0.0360855
0.034262
0.0311192
0.027642
0.0240197
0.020206
0.0161904
0.0120019
0.00768278
0.0032804
-0.00115305
-0.00556225
-0.00989131
-0.0140866
-0.0180992
-0.0218871
-0.0254164
-0.0286624
-0.0316095
-0.0342515
-0.0365896
-0.0386318
-0.0403904
-0.0418851
-0.0431594
-0.0442768
-0.0451314
-0.0450658
-0.0434228
0.0307658
0.0315825
0.0302307
0.027621
0.0246853
0.0216016
0.0183231
0.0148374
0.0111691
0.00735545
0.00343993
-0.000528328
-0.00449559
-0.00840619
-0.0122054
-0.0158426
-0.0192734
-0.0224617
-0.025381
-0.0280147
-0.0303557
-0.0324055
-0.0341726
-0.0356696
-0.0369164
-0.037956
-0.0388522
-0.0395002
-0.0392405
-0.0374108
0.0272376
0.028175
0.0271101
0.0248877
0.022359
0.0196813
0.0168091
0.0137301
0.0104657
0.00704946
0.00352119
-7.25953e-05
-0.00368004
-0.00724642
-0.0107173
-0.0140413
-0.0171735
-0.0200771
-0.0227247
-0.0250995
-0.0271944
-0.0290111
-0.0305583
-0.0318492
-0.0329032
-0.0337616
-0.0344865
-0.0349816
-0.0346124
-0.032711
0.024552
0.0255044
0.0246257
0.022697
0.0204856
0.0181246
0.0155712
0.0128141
0.00987275
0.00677725
0.00356472
0.000279236
-0.00302928
-0.00630751
-0.00950177
-0.0125612
-0.0154409
-0.0181038
-0.0205229
-0.022681
-0.0245713
-0.0261956
-0.0275629
-0.0286864
-0.0295851
-0.0302975
-0.030884
-0.0312612
-0.0308267
-0.0289086
0.0224263
0.023348
0.0225931
0.0208944
0.0189367
0.0168315
0.014537
0.0120435
0.00936858
0.00653979
0.00359176
0.000566397
-0.00248824
-0.00552033
-0.00847733
-0.0113092
-0.0139714
-0.0164274
-0.0186503
-0.0206234
-0.02234
-0.0238021
-0.0250189
-0.0260038
-0.026775
-0.0273688
-0.0278446
-0.0281307
-0.0276607
-0.0257566
0.0207037
0.0215606
0.0208918
0.0193761
0.0176276
0.0157345
0.0136561
0.0113841
0.00893458
0.00633292
0.00361153
0.000810323
-0.00202444
-0.00484247
-0.0075925
-0.0102255
-0.0126977
-0.0149731
-0.0170255
-0.0188384
-0.0204056
-0.0217292
-0.0228186
-0.0236874
-0.0243533
-0.0248505
-0.0252366
-0.0254517
-0.0249657
-0.023093
0.0192647
0.0200397
0.0194384
0.0180739
0.0164995
0.0147857
0.0128919
0.0108102
0.00855558
0.00615129
0.00362783
0.00102327
-0.00161784
-0.0042468
-0.00681366
-0.00927048
-0.0115745
-0.0136905
-0.0155927
-0.0172654
-0.0187024
-0.0199065
-0.0208871
-0.0216577
-0.0222357
-0.0226535
-0.0229668
-0.0231265
-0.0226379
-0.0208057
0.018032
0.0187142
0.0181653
0.0169378
0.0155102
0.0139504
0.0122173
0.0103023
0.00821905
0.00598928
0.0036416
0.00121232
-0.0012557
-0.0037153
-0.0061179
-0.00841678
-0.0105701
-0.0125437
-0.0143123
-0.0158609
-0.0171836
-0.0182835
-0.0191701
-0.0198571
-0.0203614
-0.0207135
-0.0209671
-0.0210841
-0.0206016
-0.0188142
0.0169532
0.0175343
0.0170255
0.0159253
0.0146287
0.0132019
0.0116107
0.00984429
0.00791454
0.00584156
0.00365235
0.00138154
-0.000929645
-0.00323558
-0.00548911
-0.00764474
-0.00966174
-0.0115067
-0.0131553
-0.0145929
-0.0158143
-0.0168225
-0.0176273
-0.0182424
-0.0186843
-0.0189817
-0.0191861
-0.01927
-0.0187997
-0.0170592
0.0159861
0.0164694
0.0159918
0.0150015
0.0138304
0.0125197
0.0110554
0.00942359
0.0076333
0.00570318
0.00365882
0.00153321
-0.000634067
-0.00279892
-0.0049156
-0.00693989
-0.00883213
-0.0105599
-0.0120995
-0.0134371
-0.0145676
-0.0154945
-0.0162275
-0.0167803
-0.0171691
-0.0174208
-0.0175853
-0.0176432
-0.0171891
-0.015496
0.0151008
0.0154885
0.0150403
0.0141466
0.0130916
0.011888
0.0105378
0.00902952
0.00736782
0.00556968
0.00365942
0.00166848
-0.000365164
-0.00239898
-0.00438864
-0.00629119
-0.00806813
-0.00968793
-0.0111278
-0.0123741
-0.0134226
-0.0142767
-0.0149461
-0.0154445
-0.0157879
-0.0160014
-0.0161331
-0.0161711
-0.0157363
-0.0140904
0.014277
0.0145683
0.0141506
0.0133456
0.012393
0.0112949
0.0100469
0.00865301
0.00711158
0.00543696
0.00365236
0.00178781
-0.000120335
-0.00203107
-0.00390154
-0.00569008
-0.00735933
-0.00887871
-0.0102262
-0.0113887
-0.0123623
-0.0131506
-0.0137633
-0.014214
-0.0145184
-0.0147
-0.0148047
-0.0148278
-0.0144143
-0.0128157
0.0134934
0.0136954
0.0133096
0.012583
0.0117216
0.0107286
0.00957547
0.00828719
0.0068591
0.00530135
0.00363581
0.00189116
0.000102198
-0.00169168
-0.00344907
-0.00512967
-0.00669726
-0.00812225
-0.00938333
-0.0104681
-0.0113728
-0.0121011
-0.0126629
-0.0130714
-0.0133421
-0.013497
-0.0135802
-0.0135926
-0.0132024
-0.0116515
0.0127326
0.0128561
0.0125025
0.0118494
0.0110714
0.0101747
0.00911679
0.00792566
0.00660525
0.00515938
0.00360786
0.0019782
0.000303634
-0.00137806
-0.00302702
-0.0046043
-0.0060749
-0.00741022
-0.00858969
-0.00960147
-0.0104421
-0.0111154
-0.0116309
-0.0120021
-0.0122437
-0.0123767
-0.0124429
-0.0124486
-0.0120833
-0.010582
0.0119843
0.0120372
0.011717
0.0111346
0.0104331
0.00962269
0.00866401
0.00756326
0.0063455
0.00500778
0.00356661
0.00204835
0.000484746
-0.0010881
-0.00263191
-0.00410921
-0.00548623
-0.0067354
-0.00783695
-0.00877956
-0.00956002
-0.0101823
-0.0106558
-0.0109936
-0.0112104
-0.0113256
-0.0113792
-0.0113818
-0.0110433
-0.0095953
0.0112411
0.011227
0.010941
0.0104272
0.00979851
0.00906827
0.00820787
0.00719594
0.0060758
0.00484338
0.00351006
0.00210083
0.000645981
-0.000820113
-0.00226085
-0.00364029
-0.00492597
-0.00609144
-0.00711774
-0.00799408
-0.00871756
-0.00929212
-0.00972714
-0.0100354
-0.0102312
-0.0103328
-0.0103781
-0.0103811
-0.0100713
-0.00868278
0.0104957
0.0104158
0.010165
0.00971805
0.00916041
0.00850708
0.00773932
0.0068199
0.00579211
0.00466292
0.00343615
0.00213468
0.000787507
-0.000572765
-0.00191133
-0.00319387
-0.00438939
-0.00547257
-0.00642535
-0.00723754
-0.00790652
-0.00843629
-0.00883604
-0.00911828
-0.00929682
-0.00938898
-0.00943023
-0.00943752
-0.00915882
-0.00783876
0.00973992
0.00959615
0.00938177
0.00900027
0.00851307
0.00793264
0.0072508
0.0064307
0.00549105
0.00446328
0.0033427
0.00214875
0.00090924
-0.000345024
-0.00158117
-0.00276665
-0.00387205
-0.00487336
-0.0057535
-0.00650292
-0.00711936
-0.00760684
-0.00797436
-0.00823407
-0.00839929
-0.00848624
-0.0085282
-0.008544
-0.00829923
-0.00706013
0.00896502
0.00876081
0.00858404
0.00826679
0.00784887
0.00734028
0.00673988
0.00602107
0.00517
0.00424155
0.00322738
0.00214167
0.00101085
-0.00013611
-0.00126841
-0.00235548
-0.00336972
-0.00428858
-0.00509612
-0.00578354
-0.00634895
-0.00679643
-0.00713475
-0.00737566
-0.00753182
-0.0076184
-0.00766616
-0.00769521
-0.00748808
-0.00634609
0.00816203
0.00790264
0.00776532
0.00751125
0.00716129
0.00672469
0.00620411
0.00558379
0.00482613
0.00399438
0.00308754
0.00211178
0.00109171
5.4524e-05
-0.000971266
-0.00195739
-0.00287824
-0.00371305
-0.00444717
-0.00507275
-0.00558835
-0.00599811
-0.00631049
-0.00653673
-0.00668873
-0.00678068
-0.00684033
-0.00688796
-0.00672287
-0.00569788
0.00732023
0.0070143
0.00691843
0.00672783
0.00644568
0.00608188
0.00563965
0.00511236
0.00445605
0.00371801
0.00292007
0.00205705
0.0011509
0.000227209
-0.00068809
-0.00156932
-0.00239331
-0.00314133
-0.00380041
-0.00436378
-0.00483063
-0.00520512
-0.00549531
-0.00571176
-0.00586557
-0.00596939
-0.00604834
-0.00612097
-0.00600334
-0.00511838
0.00642471
0.00608688
0.0060363
0.00591025
0.00569646
0.00540631
0.00504146
0.00460271
0.00405489
0.00341028
0.00272215
0.00197526
0.00118731
0.000382082
-0.000417315
-0.00118828
-0.00191053
-0.00256793
-0.00314952
-0.00364997
-0.00406917
-0.00441132
-0.00468388
-0.00489652
-0.00505922
-0.00518274
-0.00528921
-0.00539405
-0.005331
-0.00461164
0.00545606
0.00510815
0.00510813
0.00504948
0.00490694
0.0046917
0.00440518
0.00405357
0.00361538
0.00306885
0.00249096
0.00186419
0.00119968
0.000519153
-0.000157521
-0.000811415
-0.00142583
-0.00198781
-0.00248897
-0.00292574
-0.0032989
-0.0036125
-0.00387309
-0.00408916
-0.00426917
-0.00442189
-0.00456535
-0.00471108
-0.00471044
-0.00418208
0.00439632
0.00407497
0.004129
0.00413917
0.00407204
0.00393491
0.00372861
0.00346415
0.00313228
0.00268997
0.00222226
0.00172025
0.00118549
0.000637334
9.20372e-05
-0.000435948
-0.000934461
-0.00139468
-0.00181153
-0.00218384
-0.00251341
-0.00280302
-0.00305857
-0.0032871
-0.0034948
-0.00368774
-0.00387926
-0.00407521
-0.00414617
-0.00383304
0.00321398
0.0030136
0.00313489
0.00320334
0.00320698
0.00314612
0.00301731
0.00283479
0.00260031
0.00226681
0.00190564
0.00153226
0.00113529
0.000730993
0.000331307
-5.52135e-05
-0.000422727
-0.000768421
-0.00109213
-0.00139631
-0.00168423
-0.00195404