/*--------------------------------*- C++ -*----------------------------------*\
  =========                 |
  \\      /  F ield         | OpenFOAM: The Open Source CFD Toolbox
   \\    /   O peration     | Website:  https://openfoam.org
    \\  /    A nd           | Version:  12
     \\/     M anipulation  |
\*---------------------------------------------------------------------------*/
FoamFile
{
    format      ascii;
    class       volScalarField;
    location    "180";
    object      pPrime2Mean;
}
// * * * * * * * * * * * * * * * * * * * * * * * * * * * * * * * * * * * * * //

dimensions      [0 4 -4 0 0 0 0];

internalField   nonuniform List<scalar> 
6750
(
0.00714381
0.00713307
0.00711926
0.00710703
0.00709498
0.00715014
0.0071355
0.00711249
0.00708515
0.00705662
0.0071875
0.00716934
0.00713944
0.00710108
0.0070599
0.0072546
0.00723523
0.00720302
0.00716102
0.00711602
0.00734763
0.0073299
0.0073003
0.00726128
0.00721949
0.00746016
0.00744657
0.00742369
0.00739284
0.00735965
0.0075841
0.00757654
0.0075634
0.00754457
0.00752409
0.00771087
0.00771056
0.00770914
0.00770486
0.00769993
0.00783249
0.00783996
0.00785112
0.00786258
0.00787467
0.00794223
0.00795736
0.00798094
0.00800803
0.0080372
0.00803505
0.00805714
0.00809206
0.00813352
0.00817854
0.00810767
0.00813562
0.00818006
0.00823366
0.00829221
0.00815857
0.00819096
0.0082426
0.00830546
0.00837442
0.00818771
0.00822299
0.00827927
0.00834814
0.00842395
0.00819629
0.00823286
0.00829121
0.00836282
0.0084418
0.00818626
0.00822263
0.0082807
0.00835197
0.00843058
0.0081576
0.00819228
0.00824769
0.00831554
0.00839023
0.00810852
0.00813994
0.00819013
0.0082513
0.00831841
0.00803816
0.00806481
0.00810728
0.00815859
0.0082146
0.00794684
0.00796738
0.00799991
0.00803858
0.0080805
0.0078364
0.00784977
0.00787068
0.00789462
0.0079203
0.00771035
0.00771597
0.00772429
0.00773241
0.0077408
0.00757399
0.00757181
0.00756749
0.00755984
0.00755116
0.00743422
0.00742481
0.00740884
0.00738671
0.00736258
0.00729915
0.00728378
0.00725817
0.00722418
0.00718752
0.00717742
0.00715801
0.00712584
0.00708386
0.00703884
0.00707722
0.00705626
0.00702165
0.00697687
0.00692891
0.00700496
0.00698531
0.00695315
0.00691219
0.0068683
0.00696448
0.00694849
0.00692341
0.00689364
0.00686259
0.0069569
0.00694506
0.00692957
0.00691543
0.0069017
0.00705609
0.00700013
0.00689316
0.00674287
0.00655191
0.00632219
0.00605449
0.00574961
0.00541048
0.00504156
0.00464743
0.00423764
0.00382112
0.00340809
0.00300877
0.00263229
0.00228593
0.00197465
0.00170071
0.00146379
0.00126162
0.00109345
0.000953619
0.000838256
0.000743809
0.000666894
0.000604707
0.000554696
0.000515011
0.000490019
0.00706117
0.00696882
0.00683336
0.00665961
0.00644901
0.00620283
0.00592275
0.00561134
0.00527254
0.00491079
0.00453012
0.00413998
0.00374734
0.00336047
0.0029874
0.00263515
0.00230939
0.00201399
0.00175105
0.0015211
0.0013235
0.00115394
0.00101172
0.000893079
0.000794799
0.000714116
0.00064844
0.000595156
0.000551505
0.000518079
0.0070357
0.0069154
0.00675767
0.00656695
0.00634301
0.00608708
0.00580106
0.00548797
0.00515226
0.00479781
0.00442981
0.00405664
0.00368409
0.003319
0.0029677
0.00263567
0.00232725
0.00204552
0.00179226
0.00156795
0.00137204
0.00120324
0.00105943
0.000938086
0.00083659
0.000752419
0.000683179
0.000626375
0.000579914
0.000544285
0.00699521
0.00685665
0.00668293
0.00648014
0.00624826
0.00598771
0.00570019
0.00538892
0.00505825
0.00471128
0.00435464
0.003995
0.00363763
0.00328849
0.00295292
0.00263549
0.0023398
0.00206846
0.00182301
0.00160399
0.00141106
0.00124336
0.00109917
0.000976433
0.000872884
0.000786163
0.000713784
0.000653401
0.000603592
0.000568156
0.00694993
0.00679844
0.00661262
0.0064006
0.00616358
0.00590115
0.00561476
0.00530732
0.00498271
0.00464357
0.00429708
0.00394848
0.00360287
0.00326563
0.00294159
0.00263489
0.00234878
0.00208563
0.00184685
0.00163293
0.0014436
0.00127797
0.00113459
0.00101164
0.00090702
0.000818482
0.000743545
0.000679713
0.000626952
0.000591781
0.00690692
0.00674554
0.00655068
0.00633167
0.00609089
0.00582818
0.00554421
0.0052415
0.00492308
0.00459155
0.00425372
0.00391398
0.00357727
0.0032487
0.00293292
0.00263391
0.00235489
0.00209813
0.00186495
0.00165578
0.00147022
0.00130731
0.00116558
0.00104324
0.000938262
0.000848501
0.000771469
0.000704824
0.000649621
0.00061497
0.00687069
0.00670156
0.00649963
0.0062755
0.00603206
0.00576974
0.00548873
0.00519086
0.00487809
0.00455342
0.00422266
0.0038897
0.00355941
0.00323681
0.00292655
0.00263275
0.0023587
0.00210671
0.00187809
0.00167312
0.00149126
0.00133134
0.00119172
0.00107052
0.000965694
0.0008752
0.000796624
0.000727804
0.000670663
0.00063677
0.00684492
0.00666956
0.00646192
0.00623368
0.0059887
0.00572685
0.00544876
0.00515525
0.00484721
0.00452827
0.0042028
0.00387458
0.00354842
0.00322938
0.0029223
0.00263152
0.00236057
0.00211189
0.00188675
0.00168535
0.00150691
0.00135
0.00121273
0.00109302
0.000988821
0.000897948
0.000818327
0.000748005
0.000689383
0.000656279
0.00683295
0.00665238
0.00643967
0.00620781
0.00596163
0.00570034
0.0054247
0.00513463
0.0048303
0.00451555
0.0041935
0.00386794
0.00354372
0.00322602
0.00291998
0.00263029
0.00236075
0.00211397
0.00189128
0.00169271
0.00151729
0.00136325
0.00122841
0.00111047
0.00100728
0.000916568
0.000836429
0.000764987
0.000705221
0.000672759
0.00683807
0.00665279
0.00643509
0.00619957
0.00595202
0.00569127
0.00541718
0.00512925
0.00482745
0.00451505
0.00419444
0.00386945
0.003545
0.0032265
0.0029195
0.00262907
0.00235935
0.00211315
0.00189183
0.00169532
0.0015224
0.00137099
0.00123858
0.00112263
0.00102073
0.000930715
0.000850512
0.000778282
0.000717619
0.000685552
0.00686365
0.00667368
0.00645056
0.00621071
0.00596111
0.00570034
0.00542691
0.00513967
0.00483893
0.00452689
0.00420563
0.00387902
0.00355213
0.00323073
0.0029208
0.00262787
0.00235643
0.00210949
0.00188847
0.0016932
0.00152221
0.00137312
0.0012431
0.00112929
0.00102903
0.000940107
0.000860163
0.000787426
0.000726062
0.000694099
0.00691342
0.00671822
0.00648874
0.00624342
0.00599075
0.00572891
0.00545482
0.00516678
0.00486531
0.00455148
0.00422733
0.0038968
0.00356519
0.00323871
0.00292387
0.00262668
0.00235197
0.00210299
0.00188119
0.0016863
0.00151664
0.00136954
0.00124181
0.00113027
0.00103193
0.000944429
0.000864959
0.000791953
0.000730106
0.000697965
0.00699168
0.00679015
0.006553
0.00630068
0.00604367
0.00577881
0.00550231
0.00521184
0.0049075
0.00458953
0.00426005
0.00392313
0.00358438
0.00325056
0.00292876
0.00262548
0.00234592
0.00209355
0.00186987
0.00167453
0.00150561
0.00136013
0.00123459
0.00112538
0.00102911
0.000943091
0.000864441
0.000791458
0.000729401
0.000696856
0.00710364
0.00689404
0.00664741
0.00638597
0.00612249
0.00585261
0.00557158
0.00527658
0.00496682
0.0046421
0.00430458
0.00395852
0.00361004
0.00326648
0.00293554
0.00262426
0.00233821
0.00208106
0.00185439
0.00165775
0.00148899
0.0013448
0.00122129
0.00111437
0.00102032
0.000935933
0.000858309
0.000785688
0.000723779
0.000690681
0.00725558
0.00703564
0.00677719
0.00650395
0.00623147
0.00595389
0.00566557
0.00536338
0.0050452
0.00471065
0.00436195
0.00400371
0.00364261
0.00328671
0.00294434
0.00262303
0.00232873
0.00206535
0.00183455
0.00163578
0.00146662
0.00132339
0.00120171
0.00109707
0.00100526
0.000922684
0.0008464
0.000774578
0.000713304
0.000679655
0.00745544
0.0072224
0.00694933
0.00666104
0.0063763
0.00608756
0.00578864
0.00547563
0.00514524
0.00479707
0.0044335
0.00405957
0.00368268
0.00331159
0.00295526
0.00262175
0.00231738
0.0020463
0.0018102
0.00160843
0.00143829
0.00129563
0.00117559
0.0010732
0.000983715
0.000903219
0.000828732
0.000758327
0.000698379
0.000664456
0.00771362
0.00746422
0.00717331
0.00686588
0.0065647
0.0062604
0.00594663
0.0056178
0.00527032
0.00490381
0.00452089
0.00412721
0.00373092
0.00334147
0.00296843
0.00262037
0.00230402
0.00202373
0.00178118
0.00157552
0.00140373
0.00126122
0.00114259
0.0010424
0.000955547
0.000877622
0.000805634
0.000737572
0.000679989
0.000646483
0.00804417
0.00777452
0.00746183
0.00712977
0.00680668
0.00648129
0.00614645
0.00579547
0.00542471
0.00503391
0.0046262
0.00420798
0.00378811
0.00337671
0.00298393
0.00261883
0.00228851
0.00199746
0.00174728
0.00153682
0.00136271
0.00121992
0.00110257
0.0010047
0.00092085
0.000846336
0.000777969
0.00071369
0.000660082
0.000628313
0.00846639
0.00817129
0.00783156
0.00746765
0.00711539
0.00676129
0.00639698
0.00601559
0.00561361
0.00519112
0.00475201
0.00430346
0.00385508
0.00341762
0.00300178
0.00261704
0.00227073
0.00196733
0.00170827
0.00149211
0.00131507
0.0011717
0.00105567
0.00096051
0.000880421
0.000810564
0.000747639
0.00068943
0.000642257
0.000614428
0.00900696
0.00867904
0.00830491
0.0078991
0.00750764
0.00711396
0.00670935
0.00628678
0.00584339
0.00537995
0.00490124
0.00441535
0.00393265
0.0034645
0.00302202
0.00261493
0.00225055
0.0019332
0.00166403
0.00144128
0.00126084
0.00111687
0.00100262
0.000911169
0.00083636
0.000773199
0.000718519
0.000670041
0.000633075
0.000612632
0.00970319
0.00933191
0.00891284
0.00845102
0.00800547
0.00755737
0.00709764
0.00661983
0.00612186
0.00560565
0.00507717
0.00454549
0.00402172
0.00351768
0.00304468
0.00261239
0.00222785
0.00189497
0.00161454
0.0013845
0.00120045
0.00105631
0.000944981
0.00085919
0.000792429
0.000739642
0.000697763
0.000665038
0.000644233
0.000636734
0.0106075
0.0101767
0.00969789
0.00915947
0.00863896
0.00811563
0.00758049
0.00702832
0.00645844
0.0058744
0.00528354
0.00469596
0.0041233
0.00357755
0.00306982
0.00260931
0.00220245
0.00185257
0.00155998
0.00132229
0.00113495
0.000991807
0.000885656
0.00080906
0.000755288
0.000719309
0.000698267
0.000691163
0.000696117
0.000711014
0.0117907
0.0112774
0.0107183
0.0100735
0.00944847
0.00882065
0.00818155
0.00752902
0.00686448
0.00619345
0.00552473
0.00486917
0.00423856
0.00364451
0.00309741
0.00260547
0.00217418
0.00180604
0.00150076
0.00125568
0.00106625
0.000926538
0.000829662
0.000768432
0.000736227
0.000728172
0.000741614
0.000776755
0.000822519
0.000875597
0.013342
0.0127169
0.0120491
0.0112572
0.0104865
0.00971243
0.00893026
0.00814247
0.0073536
0.00657141
0.00580582
0.00506785
0.0043687
0.00371886
0.00312723
0.0026005
0.00214276
0.00175545
0.00143763
0.00118642
0.000997547
0.000865771
0.000785252
0.000749869
0.000753824
0.000792498
0.000863292
0.000967098
0.00107584
0.00118981
0.0153654
0.0145921
0.0137821
0.0127907
0.0118178
0.0108392
0.00986127
0.00889247
0.0079414
0.0070179
0.00613227
0.00529468
0.00451465
0.00380047
0.00315866
0.00259361
0.00210753
0.00170061
0.00137126
0.00111667
0.000933291
0.000817334
0.000765057
0.000772727
0.000836526
0.000952444
0.00111625
0.00132723
0.00152837
0.00173055
0.0179678
0.0170021
0.0160079
0.0147503
0.0135
0.012245
0.011006
0.00980074
0.00864237
0.00754209
0.00650941
0.00555228
0.00467717
0.00388886
0.00319034
0.0025829
0.00206641
0.00163965
0.00130068
0.00104732
0.000877643
0.00079046
0.000785565
0.000863224
0.0010229
0.00126103
0.00156902
0.00193816
0.00226694
0.00258866
0.0212069
0.0199916
0.0187502
0.0171514
0.0155471
0.0139457
0.0123833
0.0108882
0.00947784
0.00816387
0.00695416
0.0058536
0.00486469
0.00398789
0.003222
0.00256479
0.00201361
0.00156605
0.00122036
0.000975896
0.000833504
0.000795868
0.000867397
0.00105309
0.00135584
0.00177153
0.00228422
0.0028702
0.00337696
0.00385682
0.0253068
0.0236744
0.0220302
0.0200309
0.0180357
0.0160569
0.0141374
0.0123113
0.0106008
0.00902098
0.00758153
0.00628709
0.00513836
0.00413308
0.00326714
0.00253581
0.00193488
0.00146155
0.00111499
0.000896608
0.000809851
0.000859861
0.00105244
0.00139224
0.00188001
0.00250838
0.00325762
0.00410135
0.00489164
0.005654
0.031672
0.0295661
0.0274376
0.0249705
0.0224831
0.0199723
0.0174963
0.0151112
0.012861
0.01078
0.00889087
0.00720558
0.00572732
0.0044535
0.00337858
0.00249674
0.00180389
0.00129875
0.000983538
0.000863088
0.000942719
0.00122567
0.00171055
0.00238727
0.00323526
0.00422062
0.00530014
0.00644708
0.00745296
0.00845427
0.0515127
0.047736
0.043446
0.0390834
0.0347323
0.0303922
0.02616
0.0221286
0.0183741
0.0149559
0.011912
0.00925917
0.0069977
0.00511821
0.00360828
0.00245832
0.00166563
0.0012366
0.001185
0.00152874
0.00228469
0.00346149
0.0050518
0.00702817
0.00934128
0.0119204
0.0146773
0.017589
0.0205773
0.0232794
0.00707106
0.00703461
0.00700262
0.00697261
0.00694618
0.00692518
0.00691214
0.00690984
0.00692125
0.00694951
0.00699808
0.00707089
0.0071725
0.00730845
0.0074855
0.00771215
0.00799943
0.00836235
0.00882177
0.00940712
0.0101601
0.0111395
0.0124246
0.0141131
0.0163167
0.0191567
0.0227638
0.0275285
0.0347437
0.0557352
0.00703019
0.00700374
0.00698129
0.00696314
0.00695239
0.00695038
0.00695882
0.00697981
0.00701584
0.0070699
0.0071455
0.00724683
0.00737894
0.00754795
0.00776146
0.00802906
0.00836335
0.00878132
0.00930636
0.00997101
0.010821
0.0119198
0.0133522
0.0152215
0.0176444
0.0207619
0.0248015
0.0302331
0.0380741
0.0602722
0.00703639
0.00703111
0.00702903
0.00703053
0.00703904
0.00705654
0.00708527
0.00712774
0.00718671
0.00726537
0.00736745
0.00749741
0.00766062
0.00786373
0.00811497
0.00842495
0.00880772
0.0092821
0.00987385
0.0106184
0.0115649
0.0127814
0.0143574
0.0163999
0.0190286
0.0224031
0.0268386
0.0328792
0.0411613
0.0653053
0.0071004
0.0071166
0.00713567
0.00715799
0.00718746
0.00722645
0.00727753
0.00734342
0.00742721
0.00753237
0.00766294
0.00782371
0.00802048
0.00826037
0.00855231
0.00890782
0.00934209
0.00987546
0.0105352
0.0113585
0.0123962
0.0137178
0.0154134
0.0175871
0.0203525
0.0238852
0.0286177
0.0352818
0.0438695
0.070711
0.00721405
0.00724974
0.00728914
0.00733219
0.00738306
0.00744455
0.00751948
0.00761081
0.0077218
0.00785616
0.00801824
0.00821319
0.00844724
0.00872802
0.00906516
0.00947105
0.00996203
0.0105596
0.0112921
0.0121977
0.0133277
0.0147513
0.0165559
0.0188382
0.0217004
0.025332
0.0303085
0.0376561
0.046323
0.0764283
0.00736585
0.00741873
0.00747701
0.00754025
0.00761254
0.00769693
0.00779653
0.00791449
0.00805428
0.00821984
0.00841577
0.0086475
0.00892166
0.00924636
0.00963184
0.0100913
0.0106418
0.0113058
0.0121123
0.0130993
0.0143175
0.0158336
0.0177299
0.0200919
0.0230065
0.0266768
0.0318562
0.0400304
0.0485374
0.0826706
0.00754299
0.00761081
0.00768626
0.00776876
0.00786206
0.0079693
0.00809374
0.00823877
0.00840803
0.0086057
0.00883658
0.00910638
0.009422
0.00979196
0.010227
0.0107409
0.0113514
0.0120812
0.0129593
0.0140232
0.0153216
0.0169178
0.0188868
0.0213
0.0242256
0.0278794
0.0332256
0.0424543
0.050574
0.0897379
0.0077322
0.0078129
0.00790369
0.0080041
0.00811748
0.0082469
0.0083957
0.00856737
0.00876576
0.00899521
0.00926075
0.00956827
0.00992489
0.0103394
0.010823
0.0113898
0.0120578
0.0128497
0.0137941
0.0149274
0.0162959
0.0179587
0.019983
0.0224235
0.0253256
0.0289152
0.034389
0.044975
0.0525166
0.097952
0.00792044
0.00801217
0.00811643
0.00823309
0.00836509
0.00851538
0.00868725
0.00888426
0.00911037
0.00937005
0.00966847
0.0100117
0.010407
0.0108634
0.0113923
0.012008
0.0127285
0.0135762
0.0145791
0.0157722
0.0171997
0.0189164
0.0209817
0.0234317
0.0262852
0.0297733
0.0353258
0.0476255
0.0544675
0.107572
0.00809593
0.00819698
0.00831284
0.00844383
0.00859252
0.0087617
0.00895458
0.00917472
0.00942609
0.00971325
0.0100414
0.0104168
0.0108469
0.0113407
0.0119098
0.0125684
0.0133342
0.0142295
0.0152816
0.0165241
0.0179991
0.0197584
0.0218543
0.0243031
0.0270921
0.0304552
0.0360288
0.050412
0.0565324
0.118669
0.008249
0.00835772
0.00848329
0.00862644
0.00878946
0.008975
0.00918613
0.00942632
0.00969956
0.0100104
0.0103642
0.0107671
0.0112266
0.0117521
0.0123547
0.0130488
0.0138518
0.0147856
0.0158767
0.0171579
0.0186696
0.0204618
0.0225812
0.0250239
0.0277417
0.0309715
0.0365073
0.0532986
0.0587862
0.130972
0.00837255
0.00848733
0.00862065
0.00877362
0.00894831
0.00914719
0.00937319
0.00962972
0.00992069
0.0102507
0.010625
0.01105
0.0115331
0.0120835
0.0127124
0.013434
0.0142655
0.0152284
0.0163487
0.0176584
0.019197
0.0210134
0.0231512
0.0255869
0.0282347
0.0313383
0.0367873
0.0561881
0.0612276
0.143723
0.00846233
0.00858158
0.00872065
0.00888098
0.00906442
0.00927329
0.00951042
0.0097791
0.0100833
0.0104274
0.010817
0.0112581
0.0117584
0.0123269
0.0129747
0.0137158
0.0145674
0.0155506
0.0166911
0.01802
0.0195766
0.0214098
0.0235615
0.0259916
0.0285766
0.0315729
0.0369076
0.0589157
0.0637383
0.155708
0.00851684
0.00863898
0.00878183
0.00894699
0.00913615
0.00935152
0.00959585
0.00987241
0.0101851
0.0105385
0.0109378
0.0113893
0.0119004
0.0124803
0.0131399
0.0138932
0.0147572
0.0157528
0.0169054
0.0182457
0.0198127
0.021656
0.0238174
0.0262437
0.0287792
0.0316955
0.0369133
0.0612064
0.0660219
0.165429
0.00853702
0.00866056
0.00880525
0.00897274
0.00916465
0.00938311
0.00963084
0.00991111
0.0102278
0.0105855
0.0109894
0.0114458
0.0119619
0.0125469
0.013212
0.0139709
0.0148406
0.015842
0.0170001
0.0183457
0.0199176
0.0217658
0.0239327
0.0263584
0.0288669
0.0317406
0.0368694
0.0625228
0.067463
0.170968
0.00852562
0.00864921
0.00879395
0.00896148
0.00915337
0.00937179
0.00961943
0.0098996
0.0102162
0.0105737
0.0109774
0.0114334
0.0119493
0.012534
0.0131988
0.0139576
0.0148273
0.0158289
0.0169873
0.0183334
0.0199059
0.0217552
0.0239233
0.0263503
0.0288597
0.0317348
0.0368566
0.0624989
0.0674458
0.17118
0.00848259
0.0086049
0.00874793
0.00891323
0.00910241
0.00931769
0.00956182
0.0098381
0.0101504
0.0105033
0.010902
0.0113527
0.011863
0.0124419
0.0131009
0.0138539
0.014718
0.0157142
0.0168677
0.0182095
0.0197786
0.021625
0.0237901
0.0262201
0.0287585
0.0316784
0.0368773
0.0611428
0.0659769
0.166037
0.00840545
0.00852499
0.00866443
0.00882512
0.00900876
0.00921765
0.00945461
0.00972299
0.0100267
0.0103701
0.0107587
0.0111987
0.0116976
0.0122648
0.0129118
0.0136525
0.0145043
0.0154885
0.0166307
0.0179622
0.0195224
0.0213606
0.0235183
0.025954
0.0285441
0.0315463
0.0368561
0.0588339
0.0636818
0.156634
0.00829377
0.00840901
0.00854292
0.00869655
0.00887175
0.00907093
0.00929699
0.00955332
0.00984381
0.010173
0.0105462
0.0109697
0.0114512
0.0120001
0.012628
0.0133492
0.0141812
0.0151455
0.0162684
0.0175817
0.0191255
0.0209486
0.0230939
0.0255368
0.0281922
0.0313048
0.0367315
0.0561132
0.061177
0.144878
0.00814956
0.00825893
0.00838536
0.00852952
0.00869345
0.00887968
0.00909121
0.00933148
0.0096044
0.00991449
0.0102671
0.0106685
0.0111264
0.0116503
0.0122519
0.0129456
0.0137493
0.0146849
0.0157793
0.0170652
0.0185833
0.0203832
0.022511
0.0249621
0.0276908
0.0309343
0.0364598
0.0532524
0.0587556
0.132278
0.00797754
0.00807949
0.00819651
0.00832889
0.0084789
0.00864923
0.00884297
0.00906357
0.00931495
0.00960161
0.00992881
0.0103028
0.0107313
0.0112237
0.0117918
0.0124501
0.0132168
0.0141143
0.0151702
0.016418
0.0179
0.0196674
0.0217719
0.0242302
0.0270342
0.0304184
0.036002
0.0504099
0.0565332
0.120057
0.00778515
0.00787813
0.00798392
0.0081024
0.00823618
0.00838808
0.0085613
0.00875927
0.00898586
0.00924546
0.00954325
0.00988538
0.0102794
0.0107345
0.0112626
0.0118782
0.0125996
0.0134497
0.0144565
0.0156552
0.0170895
0.0188138
0.0208873
0.0233482
0.0262219
0.0297417
0.0353299
0.0476753
0.0545093
0.108989
0.00758225
0.00766469
0.0077575
0.00786023
0.00797588
0.00810743
0.00825809
0.00843127
0.00863072
0.00886068
0.00912612
0.00943303
0.00978868
0.0102022
0.010685
0.0112518
0.0119207
0.0127149
0.0136631
0.0148014
0.016176
0.0178454
0.0198772
0.0223303
0.0252591
0.0288937
0.0344301
0.0450778
0.0526077
0.0993636
0.00738067
0.00745088
0.00752897
0.00761436
0.00771047
0.00782036
0.00794722
0.00809434
0.0082653
0.00846414
0.0086956
0.00896537
0.00928042
0.00964953
0.0100838
0.0105975
0.0112088
0.0119406
0.0128218
0.0138899
0.0151931
0.0167945
0.0187706
0.0211987
0.0241584
0.0278722
0.0333057
0.0426065
0.0507227
0.0911281
0.00719339
0.00724942
0.00731103
0.00737777
0.00745341
0.00754096
0.00764349
0.00776409
0.00790618
0.00807356
0.00827069
0.00850292
0.00877685
0.00910079
0.00948539
0.0099444
0.0104954
0.0111608
0.0119697
0.0129598
0.0141813
0.0157014
0.0176046
0.0199845
0.0229413
0.0266868
0.0319738
0.0402272
0.0487529
0.0840404
0.00703362
0.00707324
0.00711665
0.00716372
0.00721836
0.00728338
0.00736159
0.00745593
0.00756959
0.00770618
0.00786987
0.00806563
0.00829961
0.00857964
0.00891576
0.00932092
0.00981195
0.0104105
0.0111447
0.0120523
0.0131846
0.0146115
0.0164237
0.0187276
0.0216402
0.0253607
0.0304597
0.0378935
0.0466151
0.0777922
0.00691406
0.00693491
0.00695854
0.00698519
0.00701857
0.00706113
0.00711547
0.00718434
0.00727076
0.00737809
0.00751023
0.00767179
0.00786847
0.00810752
0.0083983
0.00875292
0.00918707
0.00972117
0.0103822
0.011207
0.0122466
0.013572
0.0152773
0.0174771
0.0203005
0.0239331
0.0287982
0.0355577
0.0442481
0.0720925
0.00684604
0.00684611
0.00684894
0.00685471
0.00686679
0.00688735
0.00691874
0.00696352
0.00702443
0.0071046
0.00720765
0.00733794
0.00750079
0.00770294
0.00795305
0.00826222
0.00864496
0.00912019
0.00971333
0.0104597
0.0114092
0.0126315
0.0142211
0.0162956
0.018989
0.0224709
0.027045
0.0331939
0.0416352
0.0667299
0.00683772
0.00681718
0.00679954
0.00678502
0.00677688
0.00677675
0.00678653
0.00680844
0.006845
0.00689923
0.00697463
0.00707541
0.00720667
0.00737468
0.00758733
0.00785459
0.00818936
0.00860879
0.00913618
0.0098043
0.0106597
0.0117682
0.0132193
0.0151263
0.0176178
0.0208434
0.025021
0.0305743
0.0386228
0.0617335
0.00688021
0.006849
0.00682013
0.006792
0.00676649
0.00674563
0.00673206
0.0067287
0.00673866
0.00676525
0.00681202
0.00688304
0.00698308
0.00711788
0.00729443
0.00752135
0.00780981
0.008175
0.00863828
0.00922955
0.00999138
0.0109847
0.0122931
0.0140235
0.0162963
0.0192401
0.0229812
0.0278816
0.0353399
0.0572236
0.052984
0.0491418
0.0447258
0.0402021
0.0356837
0.0311848
0.0268082
0.0226509
0.0187905
0.0152862
0.012175
0.00947195
0.0071751
0.00527308
0.00375169
0.00259995
0.00181418
0.00140024
0.00137158
0.00174565
0.00253866
0.00375786
0.00539346
0.00741429
0.00976623
0.012373
0.0151413
0.0180457
0.0210056
0.0236749
0.032295
0.0302053
0.0280516
0.0255163
0.0229486
0.0203597
0.0178137
0.0153701
0.0130735
0.0109574
0.00904285
0.00733999
0.00585034
0.00456987
0.00349189
0.0026096
0.00191808
0.0014151
0.0011021
0.00098324
0.00106322
0.00134477
0.00182605
0.00249659
0.00333542
0.00430799
0.00537135
0.0065005
0.00747745
0.00846453
0.0256762
0.024071
0.0224304
0.020404
0.0183665
0.0163418
0.0143783
0.0125139
0.0107721
0.00916836
0.00771136
0.00640467
0.00524779
0.00423734
0.00336822
0.00263473
0.00203164
0.00155499
0.00120273
0.000975018
0.00087435
0.000905338
0.00107389
0.00138544
0.00184217
0.00243858
0.00315769
0.00397671
0.00474412
0.00550005
0.0214262
0.0202264
0.0189871
0.0173718
0.0157446
0.0141201
0.0125368
0.0110243
0.00960005
0.00827566
0.00705855
0.00595302
0.00496105
0.00408253
0.00331573
0.00265779
0.00210526
0.00165468
0.00130311
0.00104879
0.00089188
0.000835183
0.000884214
0.00104586
0.00132513
0.00171957
0.00221428
0.00278631
0.00328585
0.00376597
0.0180523
0.0170927
0.0160962
0.0148302
0.0135736
0.0123163
0.0110778
0.00987436
0.00871818
0.00761997
0.00658906
0.00563346
0.00475972
0.00397264
0.0032751
0.00266809
0.0021509
0.00172145
0.00137687
0.00111413
0.000930996
0.000826898
0.000803275
0.000862747
0.00100704
0.00123393
0.0015347
0.00189917
0.00222705
0.00254854
0.0153487
0.0145776
0.0137646
0.0127718
0.0118035
0.0108363
0.00987246
0.00891827
0.0079804
0.00706776
0.0061905
0.00535911
0.00458356
0.00387256
0.00323278
0.00266853
0.00218163
0.00177165
0.0014364
0.00117269
0.000977094
0.000846721
0.000779435
0.000773465
0.00082668
0.000935954
0.0010968
0.00130702
0.00150949
0.00171204
0.0132571
0.0126344
0.0119661
0.0111783
0.0104183
0.00966136
0.00889959
0.00813281
0.00736329
0.00659743
0.0058447
0.00511633
0.00442408
0.00377895
0.00319018
0.00266447
0.00220568
0.00181494
0.00149107
0.00123129
0.00103182
0.000888392
0.000796471
0.000751221
0.000747774
0.000781948
0.000851013
0.000955244
0.00106668
0.0011835
0.0116626
0.0111535
0.010597
0.00995969
0.00934778
0.00873881
0.00812189
0.00749264
0.00685023
0.00619858
0.00554566
0.00490225
0.00428056
0.00369271
0.00314941
0.00265896
0.00222675
0.00185523
0.00154422
0.00129149
0.00109326
0.000944528
0.000839371
0.000771313
0.000734076
0.000722836
0.000734844
0.000770183
0.000818435
0.00087501
0.0104534
0.0100276
0.00955327
0.00902381
0.00851701
0.00801243
0.00749932
0.00697073
0.00642396
0.00586086
0.00528771
0.00471422
0.00415225
0.00361418
0.00311141
0.00265321
0.002246
0.00189326
0.00159565
0.00135149
0.00115709
0.00100718
0.000895254
0.000814205
0.000757279
0.000719198
0.000696911
0.000689363
0.000695475
0.000712646
0.00953209
0.00916559
0.0087519
0.00830009
0.00786793
0.0074378
0.00699926
0.00654451
0.00606974
0.00557525
0.00506573
0.00454968
0.00403814
0.00354322
0.00307646
0.00264756
0.00226358
0.00192871
0.00164427
0.001409
0.00121947
0.00107042
0.000955263
0.000866856
0.000798438
0.000744509
0.000701636
0.000667854
0.000646728
0.000639746
0.00882419
0.00850032
0.00813174
0.00773575
0.00735745
0.00698088
0.00659648
0.00619621
0.00577572
0.00533428
0.00487537
0.0044063
0.0039372
0.00347953
0.00304457
0.00264204
0.00227934
0.00196106
0.00168899
0.00146228
0.00127776
0.0011304
0.00101386
0.000921212
0.00084592
0.0007824
0.000726943
0.000677013
0.000638568
0.000617147
0.00827516
0.00798306
0.0076487
0.00729423
0.00695483
0.00661694
0.00627195
0.00591199
0.00553235
0.00513176
0.00471287
0.00428204
0.00384845
0.00342275
0.00301563
0.00263661
0.00229308
0.00198987
0.00172907
0.00151017
0.00133033
0.00118486
0.00106777
0.00097253
0.000892865
0.000823279
0.000759751
0.000699873
0.000650453
0.000620575
0.00784684
0.00757878
0.00727096
0.00694788
0.0066371
0.00632763
0.00601134
0.00568097
0.00533181
0.00496243
0.00457499
0.00417511
0.00377105
0.00337254
0.00298957
0.0026312
0.00230469
0.00201489
0.0017641
0.00155209
0.00137635
0.00123256
0.00111518
0.0010181
0.000935328
0.000861475
0.000792737
0.000726756
0.000670519
0.000636064
0.00751222
0.00726286
0.0069762
0.00667737
0.00638811
0.0060992
0.00580349
0.00549442
0.00516761
0.0048218
0.00445892
0.00408394
0.00370424
0.00332863
0.00296631
0.00262583
0.00231414
0.00203606
0.00179398
0.00158786
0.00141552
0.001273
0.00115517
0.00105639
0.000971029
0.000894074
0.000821955
0.000752355
0.000692138
0.000655723
0.00725166
0.0070174
0.0067481
0.00646809
0.00619487
0.00592076
0.00563927
0.00534506
0.00503431
0.00470611
0.00436225
0.00400714
0.00364731
0.00329071
0.0029458
0.00262054
0.00232156
0.00205353
0.00181883
0.00161761
0.00144792
0.00130613
0.00118752
0.00108694
0.000999191
0.000919859
0.000845502
0.000773931
0.000711728
0.00067509
0.0070509
0.00682907
0.00657404
0.00630866
0.00604714
0.00578328
0.00551118
0.00522686
0.00492743
0.00461221
0.00428291
0.00394343
0.00359956
0.00325849
0.00292798
0.00261546
0.00232716
0.00206754
0.00183896
0.00164164
0.00147383
0.0013322
0.00121244
0.00110985
0.00101986
0.000938582
0.000862726
0.000790274
0.000727418
0.000691623
0.0068994
0.00668764
0.00644408
0.00618992
0.00593658
0.00567927
0.00541322
0.00513509
0.00484337
0.00453751
0.00421909
0.00389161
0.00356028
0.00323164
0.00291282
0.00261071
0.00233117
0.00207842
0.00185472
0.00166032
0.00149364
0.00135163
0.00123037
0.00112566
0.00103354
0.000950578
0.00087371
0.000801054
0.00073835
0.000703846
0.00678889
0.0065851
0.00635053
0.00610462
0.00585673
0.00560332
0.00534077
0.00506624
0.00477937
0.00447989
0.00416922
0.0038506
0.00352881
0.00320983
0.00290024
0.00260642
0.00233385
0.00208649
0.00186647
0.00167404
0.00150775
0.00136487
0.00124187
0.00113505
0.00104085
0.000956414
0.000878828
0.000806341
0.000744197
0.00071095
0.00671273
0.00651508
0.0062875
0.0060475
0.00580292
0.00555146
0.00529051
0.00501772
0.0047333
0.00443761
0.00413197
0.00381946
0.00350454
0.00319275
0.00289016
0.00260268
0.00233539
0.002092
0.00187449
0.00168311
0.00151653
0.00137233
0.00124739
0.00113843
0.00104233
0.000956605
0.000878445
0.000806327
0.000744924
0.000712636
0.00666538
0.00647253
0.00625046
0.00601477
0.00577197
0.005521
0.00526007
0.0049876
0.00470354
0.00440934
0.0041063
0.00379741
0.00348697
0.00318013
0.00288249
0.00259953
0.00233594
0.00209515
0.00187902
0.00168777
0.00152027
0.00137434
0.00124728
0.00113621
0.00103835
0.00095134
0.0008729
0.000801288
0.000740705
0.000708986
0.00664234
0.00645349
0.00623594
0.00600357
0.00576171
0.00551016
0.00524798
0.00497437
0.00468891
0.00439408
0.00409141
0.0037839
0.00347572
0.00317174
0.00287715
0.00259699
0.00233557
0.00209606
0.00188018
0.0016882
0.00151913
0.0013711
0.00124176
0.0011286
0.00102918
0.000941189
0.000862604
0.000791614
0.000731902
0.000700317
0.0066397
0.00645478
0.00624131
0.00601173
0.0057705
0.0055176
0.00525313
0.00497695
0.00468862
0.00439114
0.0040868
0.00377857
0.00347058
0.00316749
0.00287409
0.00259504
0.0023343
0.00209476
0.00187805
0.00168446
0.00151321
0.00136272
0.00123099
0.0011158
0.00101503
0.000926363
0.000847887
0.000777731
0.000718984
0.000687146
0.00665391
0.00647349
0.00626418
0.00603737
0.00579675
0.00554242
0.00527473
0.00499459
0.00470212
0.00440015
0.00409223
0.0037813
0.00347151
0.00316733
0.00287328
0.00259365
0.00233207
0.00209121
0.00187258
0.00167655
0.00150254
0.00134928
0.00121507
0.00109798
0.000996032
0.00090712
0.000829172
0.000760082
0.000702497
0.000670081
0.00668147
0.00650673
0.00630239
0.00607885
0.00583913
0.00558336
0.00531201
0.00502682
0.0047291
0.00442107
0.00410777
0.00379225
0.00347864
0.00317138
0.00287476
0.00259276
0.00232875
0.00208522
0.00186362
0.00166438
0.00148711
0.00133084
0.00119415
0.00107534
0.000972513
0.000883773
0.000806686
0.000739157
0.000683033
0.000649834
0.00671884
0.00655154
0.00635377
0.00613462
0.00589667
0.00563948
0.0053643
0.00507343
0.00476943
0.00445419
0.00413384
0.00381188
0.00349242
0.00317993
0.00287861
0.00259227
0.00232411
0.0020765
0.00185086
0.00164771
0.00146683
0.00130748
0.00116845
0.00104819
0.000944902
0.000856592
0.000780923
0.000715476
0.000661192
0.000627234
0.00676218
0.00660477
0.00641576
0.00620303
0.00596756
0.00570969
0.00543093
0.00513427
0.00482333
0.00450015
0.00417126
0.00384104
0.00351355
0.00319343
0.00288499
0.00259204
0.00231776
0.00206453
0.00183382
0.00162617
0.0014415
0.00127925
0.00113826
0.001017
0.000913683