/*--------------------------------*- C++ -*----------------------------------*\
  =========                 |
  \\      /  F ield         | OpenFOAM: The Open Source CFD Toolbox
   \\    /   O peration     | Website:  https://openfoam.org
    \\  /    A nd           | Version:  12
     \\/     M anipulation  |
\*---------------------------------------------------------------------------*/
FoamFile
{
    format      ascii;
    class       volVectorField;
    location    "180";
    object      U;
}
// * * * * * * * * * * * * * * * * * * * * * * * * * * * * * * * * * * * * * //

dimensions      [0 1 -1 0 0 0 0];

internalField   nonuniform List<vector> 
6750
(
(0.200065 -0.00312049 0)
(0.200334 -0.00958845 0)
(0.200601 -0.0155815 0)
(0.200831 -0.021157 0)
(0.200689 -0.0263974 0)
(0.200037 -0.00347805 0)
(0.200271 -0.0101446 0)
(0.200458 -0.0160522 0)
(0.200516 -0.0213267 0)
(0.200373 -0.0260405 0)
(0.200026 -0.00363716 0)
(0.200122 -0.0103566 0)
(0.200123 -0.016121 0)
(0.199979 -0.0210918 0)
(0.19971 -0.0253523 0)
(0.20001 -0.00366789 0)
(0.199953 -0.0102919 0)
(0.199761 -0.0158482 0)
(0.199437 -0.0205367 0)
(0.199037 -0.024479 0)
(0.199996 -0.00359764 0)
(0.199798 -0.00999831 0)
(0.199422 -0.0152918 0)
(0.19892 -0.0197071 0)
(0.198376 -0.0233922 0)
(0.199984 -0.00344411 0)
(0.199656 -0.00951087 0)
(0.199104 -0.014486 0)
(0.198422 -0.0186121 0)
(0.197713 -0.0220478 0)
(0.199974 -0.0032218 0)
(0.199524 -0.00885715 0)
(0.198799 -0.0134559 0)
(0.197931 -0.0172606 0)
(0.197043 -0.0204291 0)
(0.199965 -0.00294177 0)
(0.199398 -0.00805993 0)
(0.198505 -0.0122247 0)
(0.197451 -0.0156686 0)
(0.196378 -0.0185403 0)
(0.199956 -0.00261359 0)
(0.199281 -0.00714166 0)
(0.198227 -0.0108204 0)
(0.196995 -0.0138635 0)
(0.195739 -0.016406 0)
(0.199949 -0.00224701 0)
(0.199175 -0.00612688 0)
(0.197976 -0.0092765 0)
(0.196579 -0.0118841 0)
(0.195151 -0.0140671 0)
(0.199943 -0.00185233 0)
(0.199084 -0.00504229 0)
(0.197758 -0.00763137 0)
(0.196219 -0.00977696 0)
(0.194641 -0.0115764 0)
(0.199938 -0.00144019 0)
(0.199011 -0.00391552 0)
(0.197583 -0.00592549 0)
(0.195927 -0.00759237 0)
(0.194226 -0.00899228 0)
(0.199935 -0.00102088 0)
(0.198957 -0.00277343 0)
(0.197453 -0.00419855 0)
(0.195711 -0.00538034 0)
(0.193918 -0.00637367 0)
(0.199931 -0.000603634 0)
(0.198926 -0.00164073 0)
(0.197371 -0.00248657 0)
(0.195573 -0.00318644 0)
(0.19372 -0.00377486 0)
(0.199921 -0.000200163 0)
(0.198921 -0.000536942 0)
(0.197334 -0.000818164 0)
(0.195509 -0.00104871 0)
(0.193626 -0.00124234 0)
(0.199921 0.000200686 0)
(0.198921 0.000538451 0)
(0.197334 0.000820529 0)
(0.195509 0.0010518 0)
(0.193626 0.00124602 0)
(0.199931 0.000604157 0)
(0.198926 0.00164224 0)
(0.197371 0.00248893 0)
(0.195573 0.00318952 0)
(0.19372 0.00377854 0)
(0.199935 0.0010214 0)
(0.198957 0.00277494 0)
(0.197453 0.00420091 0)
(0.195712 0.00538341 0)
(0.193918 0.00637733 0)
(0.199938 0.0014407 0)
(0.199011 0.00391702 0)
(0.197583 0.00592784 0)
(0.195927 0.00759543 0)
(0.194226 0.00899593 0)
(0.199943 0.00185284 0)
(0.199084 0.00504379 0)
(0.197758 0.0076337 0)
(0.196219 0.00977999 0)
(0.194641 0.01158 0)
(0.199949 0.00224752 0)
(0.199175 0.00612836 0)
(0.197976 0.00927881 0)
(0.196579 0.0118872 0)
(0.195151 0.0140707 0)
(0.199956 0.0026141 0)
(0.199281 0.00714313 0)
(0.198227 0.0108227 0)
(0.196995 0.0138665 0)
(0.195739 0.0164096 0)
(0.199965 0.00294227 0)
(0.199398 0.00806139 0)
(0.198505 0.012227 0)
(0.197451 0.0156715 0)
(0.196378 0.0185439 0)
(0.199974 0.0032223 0)
(0.199524 0.00885859 0)
(0.198799 0.0134581 0)
(0.197931 0.0172635 0)
(0.197043 0.0204326 0)
(0.199984 0.0034446 0)
(0.199656 0.0095123 0)
(0.199104 0.0144883 0)
(0.198422 0.018615 0)
(0.197713 0.0220513 0)
(0.199996 0.00359813 0)
(0.199798 0.00999973 0)
(0.199422 0.015294 0)
(0.19892 0.01971 0)
(0.198376 0.0233957 0)
(0.20001 0.00366837 0)
(0.199953 0.0102933 0)
(0.199761 0.0158504 0)
(0.199437 0.0205396 0)
(0.199037 0.0244825 0)
(0.200026 0.00363763 0)
(0.200122 0.010358 0)
(0.200123 0.0161232 0)
(0.199979 0.0210947 0)
(0.19971 0.0253558 0)
(0.200037 0.0034785 0)
(0.200271 0.0101459 0)
(0.200458 0.0160544 0)
(0.200516 0.0213296 0)
(0.200373 0.0260441 0)
(0.200065 0.0031209 0)
(0.200334 0.00958975 0)
(0.200601 0.0155836 0)
(0.200831 0.0211599 0)
(0.200689 0.0264011 0)
(0.19851 -0.0381722 0)
(0.196771 -0.043768 0)
(0.195289 -0.0488935 0)
(0.194257 -0.0534953 2.80939e-22)
(0.193529 -0.0574616 0)
(0.193046 -0.0607314 0)
(0.192797 -0.0632384 -1.92339e-20)
(0.192769 -0.064887 1.94036e-20)
(0.192941 -0.0655602 1.57545e-22)
(0.193244 -0.0652032 1.0088e-20)
(0.193647 -0.063688 1.90683e-23)
(0.194075 -0.0608615 -1.278e-23)
(0.194445 -0.0567936 -5.1947e-21)
(0.194677 -0.0515536 -5.15486e-21)
(0.194694 -0.0452849 -1.20354e-20)
(0.194442 -0.0381975 1.20397e-20)
(0.19389 -0.0305508 -4.83101e-21)
(0.193041 -0.0226257 -4.48243e-21)
(0.191921 -0.0147034 3.12145e-22)
(0.190581 -0.00703958 3.54501e-22)
(0.189071 0.000155506 8.60621e-21)
(0.187468 0.00676816 -1.26796e-22)
(0.185855 0.012674 1.47223e-20)
(0.184292 0.0178159 -1.45921e-20)
(0.182829 0.0221834 0)
(0.181507 0.0257973 0)
(0.180356 0.0286988 -1.8518e-22)
(0.179402 0.0309407 0)
(0.178663 0.0325779 0)
(0.178133 0.0336362 0)
(0.197621 -0.0415339 0)
(0.196044 -0.0470396 0)
(0.19485 -0.0517322 0)
(0.194006 -0.055823 -2.65528e-22)
(0.193397 -0.0592985 0)
(0.193008 -0.0621182 0)
(0.192838 -0.0642109 1.91539e-20)
(0.192872 -0.0654797 -1.96144e-20)
(0.193087 -0.0658156 -1.48284e-22)
(0.193413 -0.0651866 0)
(0.193822 -0.0634276 0)
(0.194229 -0.0604565 -9.53836e-21)
(0.194566 -0.0563364 9.5684e-21)
(0.194755 -0.0511383 0)
(0.194729 -0.0449988 -3.21003e-20)
(0.194439 -0.0381117 3.21006e-20)
(0.193862 -0.0307115 0)
(0.193001 -0.0230532 8.68071e-21)
(0.191882 -0.0153887 -8.72482e-21)
(0.190551 -0.00794865 0)
(0.189069 -0.000923419 0)
(0.187495 0.00556687 1.18952e-22)
(0.185898 0.0114124 -1.41391e-20)
(0.184342 0.0165555 1.42457e-20)
(0.182875 0.0209776 0)
(0.181534 0.0246901 0)
(0.18035 0.0277255 1.74381e-22)
(0.179342 0.0301294 0)
(0.178537 0.0319602 0)
(0.177941 0.0332944 0)
(0.196785 -0.0441232 0)
(0.195526 -0.0491185 0)
(0.194513 -0.0533926 0)
(0.193762 -0.0571497 1.95491e-20)
(0.193226 -0.0603429 -1.9766e-20)
(0.192909 -0.0629085 2.06361e-20)
(0.192805 -0.0647636 -2.08301e-20)
(0.192897 -0.0658103 3.20932e-22)
(0.193156 -0.0659483 0)
(0.193513 -0.0651524 0)
(0.193938 -0.0632362 -3.2034e-22)
(0.194339 -0.0601704 0)
(0.194654 -0.0560061 0)
(0.194805 -0.0508169 -7.58223e-23)
(0.194727 -0.0447372 -5.28384e-20)
(0.194377 -0.0379535 5.28387e-20)
(0.193735 -0.030689 7.01467e-23)
(0.192809 -0.0231837 0)
(0.19163 -0.0156739 0)
(0.190245 -0.00837405 2.54034e-22)
(0.188715 -0.00146142 0)
(0.187102 0.00492822 0)
(0.185472 0.0107088 -2.35589e-22)
(0.183884 0.0158236 -1.37248e-20)
(0.182385 0.0202512 1.3597e-20)
(0.181011 0.023999 -1.26058e-20)
(0.179788 0.0270935 1.24487e-20)
(0.178733 0.0295729 0)
(0.177878 0.0314952 0)
(0.177298 0.0330053 0)
(0.196045 -0.0464501 0)
(0.195011 -0.0510258 -4.23273e-20)
(0.194101 -0.0549653 2.13422e-20)
(0.193419 -0.05843 4.43576e-20)
(0.192954 -0.0613544 -4.48944e-20)
(0.192705 -0.063667 2.23309e-20)
(0.192663 -0.0652825 0)
(0.192814 -0.0661051 7.01106e-22)
(0.193108 -0.0660521 0)
(0.193504 -0.0650789 0)
(0.193945 -0.0630102 1.13649e-20)
(0.194346 -0.0598524 -1.07403e-20)
(0.194642 -0.055645 0)
(0.194753 -0.050465 7.96035e-23)
(0.194616 -0.044445 -7.31642e-20)
(0.19419 -0.0377646 7.31647e-20)
(0.193461 -0.0306361 -7.36449e-23)
(0.192439 -0.0232857 0)
(0.191161 -0.0159352 -8.4826e-21)
(0.18968 -0.00878513 7.92433e-21)
(0.188058 -0.00200204 2.42423e-22)
(0.186362 0.004287 0)
(0.184657 0.00999669 -4.43816e-22)
(0.183003 0.0150745 0)
(0.181444 0.0194992 1.29647e-20)
(0.180017 0.023275 -2.47029e-20)
(0.178744 0.0264243 2.33447e-20)
(0.177638 0.0289781 1.04718e-20)
(0.17673 0.0309901 -2.16259e-20)
(0.176186 0.0326764 0)
(0.195287 -0.0486664 0)
(0.194388 -0.0528777 4.75082e-20)
(0.19356 -0.0565051 -4.66848e-20)
(0.19295 -0.0596815 0)
(0.192554 -0.062337 0)
(0.19237 -0.0643961 7.60141e-22)
(0.192386 -0.0657722 0)
(0.192589 -0.0663705 -7.34602e-22)
(0.192922 -0.0661304 1.15979e-20)
(0.193353 -0.0649715 -1.17572e-20)
(0.193806 -0.0627545 -1.16148e-20)
(0.194205 -0.0595001 1.13138e-20)
(0.194477 -0.0552442 3.37652e-22)
(0.194542 -0.0500668 -1.62984e-22)
(0.194338 -0.0440989 -9.30981e-20)
(0.193826 -0.0375145 9.30985e-20)
(0.192994 -0.0305159 1.44203e-22)
(0.191859 -0.0233173 -2.75953e-22)
(0.190461 -0.0161268 8.47767e-21)
(0.188859 -0.00913182 -8.17154e-21)
(0.187119 -0.00248795 -8.03031e-21)
(0.185313 0.00368649 7.7208e-21)
(0.183507 0.00931015 4.65117e-22)
(0.181759 0.0143341 0)
(0.180118 0.0187379 -4.00969e-22)
(0.178618 0.0225247 0)
(0.177281 0.0257134 0)
(0.176115 0.028329 -2.21975e-20)
(0.175148 0.0304195 2.12292e-20)
(0.174633 0.0322729 0)
(0.194433 -0.0507734 4.88991e-20)
(0.193618 -0.0546366 -7.68698e-20)
(0.192866 -0.0579644 2.53268e-20)
(0.192326 -0.0608637 0)
(0.191996 -0.0632603 2.56111e-20)
(0.191872 -0.0650745 -2.50806e-20)
(0.191943 -0.0662188 2.46688e-20)
(0.192195 -0.0666012 -2.55604e-20)
(0.192564 -0.0661765 0)
(0.193023 -0.0648302 -7.72647e-22)
(0.193484 -0.0624685 1.18346e-20)
(0.193876 -0.0591137 -6.15813e-21)
(0.194117 -0.0548025 -9.28438e-22)
(0.194128 -0.0496177 -5.3802e-21)
(0.19385 -0.0436897 -1.12667e-19)
(0.193244 -0.0371878 1.12664e-19)
(0.192302 -0.0303066 -4.80956e-21)
(0.191045 -0.0232497 7.69613e-22)
(0.189517 -0.016213 -4.05188e-21)
(0.187782 -0.00937208 8.43618e-21)
(0.185911 -0.00287186 4.7874e-22)
(0.183978 0.00317756 0)
(0.182052 0.00870062 -1.40895e-20)
(0.180194 0.0136525 1.43681e-20)
(0.178453 0.0180148 -1.32306e-20)
(0.176864 0.0217905 1.2705e-20)
(0.175449 0.0249963 7.24018e-22)
(0.174211 0.0276528 1.11663e-20)
(0.173177 0.0298015 -3.26015e-20)
(0.172672 0.0317974 2.30131e-20)
(0.193438 -0.0527548 -2.56091e-20)
(0.192676 -0.0562837 2.89266e-20)
(0.191994 -0.05933 2.89692e-20)
(0.19152 -0.0619678 -2.93748e-20)
(0.191251 -0.0641174 2.74575e-20)
(0.191183 -0.0656961 -2.95068e-20)
(0.191306 -0.0666167 -8.82648e-22)
(0.191602 -0.0667922 0)
(0.192003 -0.0661825 1.30462e-20)
(0.192482 -0.0646499 3.71063e-22)
(0.192945 -0.0621453 3.20415e-22)
(0.193322 -0.0586866 -1.28701e-20)
(0.193525 -0.0543132 -5.37812e-21)
(0.193477 -0.0491111 8.50827e-21)
(0.193118 -0.0432106 -1.34341e-19)
(0.192414 -0.0367777 1.29109e-19)
(0.191358 -0.0300006 7.18963e-21)
(0.189976 -0.0230737 -5.26941e-21)
(0.188315 -0.0161827 -8.47256e-21)
(0.186442 -0.00949228 -1.19394e-22)
(0.184434 -0.00313742 -1.61402e-22)
(0.182367 0.00277991 7.59186e-21)
(0.180314 0.0081905 0)
(0.178336 0.0130542 3.83303e-22)
(0.176483 0.0173553 -1.18789e-20)
(0.174793 0.0210978 1.25527e-20)
(0.173286 0.0242974 -1.16354e-20)
(0.171967 0.0269717 1.0747e-20)
(0.170855 0.0291566 1.06354e-20)
(0.170338 0.0312636 -1.20515e-20)
(0.192263 -0.0546061 0)
(0.191535 -0.0578194 2.7188e-20)
(0.190915 -0.060604 -3.31119e-20)
(0.190502 -0.062995 3.11922e-20)
(0.190291 -0.0649083 -2.97854e-20)
(0.190276 -0.0662595 2.7342e-20)
(0.190449 -0.066963 -2.76899e-20)
(0.190779 -0.06694 -1.8062e-21)
(0.191211 -0.0661381 -8.84016e-22)
(0.191702 -0.0644226 -8.62145e-22)
(0.19216 -0.061776 -8.30892e-22)
(0.192513 -0.0582093 4.00544e-22)
(0.192671 -0.0537672 -6.34069e-21)
(0.192558 -0.0485386 3.14736e-21)
(0.192114 -0.0426547 -1.47243e-19)
(0.191309 -0.0362789 1.52602e-19)
(0.190139 -0.0295939 2.23691e-21)
(0.188631 -0.0227864 -4.16946e-21)
(0.186838 -0.0160331 2.6464e-22)
(0.18483 -0.00948867 1.02246e-21)
(0.182686 -0.00327917 4.69019e-22)
(0.180485 0.00250146 4.43531e-22)
(0.178302 0.00779042 8.41757e-22)
(0.1762 0.0125524 -1.39083e-20)
(0.17423 0.0167751 1.36625e-20)
(0.172431 0.0204642 -1.19559e-20)
(0.170825 0.0236356 1.10414e-20)
(0.169414 0.0263051 -9.64898e-21)
(0.168217 0.0285044 1.15495e-20)
(0.167665 0.0306892 0)
(0.190874 -0.0563288 0)
(0.190167 -0.0592463 1.97444e-21)
(0.189604 -0.0617871 -2.73676e-20)
(0.189248 -0.0639442 4.15491e-22)
(0.18909 -0.06563 3.18516e-20)
(0.189125 -0.0667604 1.94631e-21)
(0.189344 -0.0672498 1.94682e-21)
(0.189699 -0.0670353 -1.30217e-20)
(0.190158 -0.066035 1.60908e-20)
(0.190652 -0.0641422 -4.9598e-24)
(0.1911 -0.0613506 -6.81429e-21)
(0.191421 -0.0576717 6.85523e-21)
(0.191527 -0.0531547 -2.68833e-21)
(0.191343 -0.047892 3.0968e-21)
(0.190813 -0.0420156 -1.67981e-19)
(0.189905 -0.0356867 1.67981e-19)
(0.188622 -0.0290836 2.40145e-21)
(0.186993 -0.0223862 -2.68984e-21)
(0.185074 -0.0157628 3.9311e-21)
(0.182936 -0.00935969 -5.19785e-21)
(0.180661 -0.00329429 -2.92355e-23)
(0.17833 0.00234703 7.01115e-21)
(0.17602 0.00750771 -7.85081e-21)
(0.173794 0.0121574 -7.80143e-22)
(0.171707 0.0162874 -8.00004e-22)
(0.169797 0.0199056 1.16724e-20)
(0.168086 0.0230286 -3.29575e-22)
(0.166578 0.0256719 -1.23483e-20)
(0.165289 0.0278648 0)
(0.164682 0.0300944 0)
(0.189237 -0.0579251 0)
(0.188543 -0.0605655 -3.52513e-20)
(0.188034 -0.0628779 4.09989e-22)
(0.187731 -0.0648117 5.2223e-22)
(0.187623 -0.0662776 6.51822e-20)
(0.187704 -0.0671923 -3.38097e-20)
(0.187962 -0.0674728 -2.03456e-21)
(0.188342 -0.067066 0)
(0.188818 -0.0658646 1.44253e-20)
(0.189309 -0.0637965 -1.4629e-20)
(0.189738 -0.0608579 7.12412e-21)
(0.190021 -0.0570631 -3.99158e-22)
(0.19007 -0.0524662 -6.80265e-21)
(0.189811 -0.0471632 1.92251e-22)
(0.189191 -0.0412869 -1.85225e-19)
(0.188183 -0.0349969 1.85307e-19)
(0.18679 -0.0284674 -1.53753e-22)
(0.185045 -0.0218721 -4.49412e-21)
(0.183005 -0.0153721 2.93475e-22)
(0.180745 -0.00910561 5.15636e-21)
(0.178348 -0.0031822 -7.78338e-21)
(0.175895 0.00231876 7.20124e-21)
(0.173465 0.00734672 0)
(0.171122 0.0118762 8.15382e-22)
(0.16892 0.015902 -1.17932e-20)
(0.166899 0.0194347 2.36038e-20)
(0.165083 0.0224921 -3.06255e-22)
(0.163475 0.02509 5.53335e-22)
(0.162091 0.0272572 -1.03269e-20)
(0.161413 0.0295004 0)
(0.18732 -0.059397 -4.54103e-21)
(0.186634 -0.0617769 0)
(0.186176 -0.0638734 -2.21685e-21)
(0.185923 -0.0655926 3.33246e-20)
(0.185863 -0.0668443 -3.62235e-20)
(0.185987 -0.0675475 3.50208e-20)
(0.186277 -0.0676239 -3.53196e-20)
(0.186681 -0.0670191 -1.66787e-20)
(0.187165 -0.0656161 3.52695e-20)
(0.187647 -0.0633739 2.09296e-22)
(0.18805 -0.0602862 -1.47781e-20)
(0.188288 -0.0563725 7.0361e-21)
(0.188275 -0.0516921 -3.76865e-21)
(0.187939 -0.0463443 -5.05627e-21)
(0.187229 -0.0404627 -2.00258e-19)
(0.186121 -0.0342058 2.03026e-19)
(0.184622 -0.0277437 -3.59002e-21)
(0.182768 -0.0212446 -2.05802e-21)
(0.180617 -0.0148625 4.4605e-21)
(0.178245 -0.00872831 -8.64335e-21)
(0.175736 -0.00294452 3.27646e-23)
(0.173172 0.00241615 1.28501e-20)
(0.17063 0.00730876 -6.58089e-21)
(0.168178 0.0117124 -1.18615e-20)
(0.165868 0.0156255 1.16972e-20)
(0.163742 0.0190611 -1.08728e-20)
(0.161822 0.0220386 1.1259e-20)
(0.160114 0.0245745 -5.96674e-22)
(0.158634 0.0266989 0)
(0.157873 0.0289274 1.42457e-21)
(0.185089 -0.0607455 4.7227e-21)
(0.184411 -0.0628791 -4.00419e-20)
(0.184002 -0.0647691 3.83818e-20)
(0.183799 -0.0662803 2.36427e-21)
(0.183784 -0.0673218 2.35519e-21)
(0.18395 -0.0678148 0)
(0.184261 -0.0676919 -2.30495e-21)
(0.184688 -0.0668809 -1.98748e-20)
(0.185173 -0.0652788 3.38579e-20)
(0.18564 -0.0628617 -1.82883e-20)
(0.186012 -0.0596232 -1.00121e-21)
(0.186199 -0.0555887 7.30337e-21)
(0.18612 -0.0508226 -7.34261e-21)
(0.185704 -0.0454273 -2.03821e-22)
(0.184905 -0.0395376 -2.1731e-19)
(0.183701 -0.0333102 2.17223e-19)
(0.182103 -0.0269115 1.55936e-22)
(0.180147 -0.0205043 -4.45647e-21)
(0.177894 -0.0142361 4.43271e-21)
(0.175421 -0.00823095 5.00841e-22)
(0.172811 -0.00258449 -6.42834e-21)
(0.170147 0.00263657 1.36421e-20)
(0.167506 0.00739254 -5.58921e-21)
(0.164954 0.0116667 6.81856e-22)
(0.162546 0.015461 0)
(0.160321 0.0187908 -6.79766e-22)
(0.158303 0.0216769 -6.49624e-22)
(0.156498 0.0241374 9.60476e-21)
(0.154925 0.0262043 -8.79953e-21)
(0.154073 0.028394 -1.48155e-21)
(0.182511 -0.0619698 0)
(0.181844 -0.0638683 -5.61993e-23)
(0.181484 -0.0655584 4.01652e-20)
(0.181329 -0.0668657 -4.09435e-20)
(0.181358 -0.0676997 -3.97322e-20)
(0.18156 -0.0679836 6.20391e-20)
(0.181894 -0.0676611 -1.73012e-20)
(0.182336 -0.0666382 -2.23746e-23)
(0.182817 -0.0648394 -2.30544e-21)
(0.183265 -0.0622462 0)
(0.183599 -0.058856 -8.0791e-21)
(0.183731 -0.0547001 1.57105e-20)
(0.183583 -0.0498477 -7.61367e-21)
(0.183087 -0.0444045 2.13278e-22)
(0.1822 -0.0385058 -2.31884e-19)
(0.180904 -0.0323067 2.31972e-19)
(0.179212 -0.0259699 -1.63171e-22)
(0.177163 -0.0196525 -4.41041e-21)
(0.174819 -0.013496 8.37598e-21)
(0.172257 -0.00761755 -3.96072e-21)
(0.169559 -0.00210662 0)
(0.166808 0.00297576 7.4619e-22)
(0.16408 0.00759469 -7.65502e-23)
(0.161441 0.0117374 -5.98258e-21)
(0.158944 0.0154088 1.45564e-20)
(0.156629 0.0186265 -9.7937e-21)
(0.154521 0.0214129 -9.03108e-21)
(0.152625 0.0237873 9.4385e-21)
(0.150963 0.0257846 -6.51611e-23)
(0.150016 0.0279155 0)
(0.179553 -0.0630668 0)
(0.178899 -0.0647379 -3.97105e-20)
(0.178589 -0.0662317 4.32528e-20)
(0.178483 -0.0673376 3.96717e-20)
(0.178555 -0.0679651 -4.31953e-20)
(0.178789 -0.068042 -2.31331e-20)
(0.179146 -0.0675141 8.25798e-22)
(0.179598 -0.0662763 2.29556e-20)
(0.18007 -0.064282 4.82485e-21)
(0.180493 -0.0615124 0)
(0.180785 -0.0579707 0)
(0.18086 -0.0536943 -6.82003e-21)
(0.18064 -0.0487573 8.35249e-21)
(0.180064 -0.043268 0)
(0.179091 -0.037362 -2.4525e-19)
(0.177708 -0.0311926 2.45247e-19)
(0.17593 -0.0249183 0)
(0.173797 -0.018691 4.06305e-21)
(0.171374 -0.0126455 -4.80612e-21)
(0.168735 -0.00689283 0)
(0.165963 -0.0015164 0)
(0.163138 0.00342807 -1.47522e-21)
(0.160337 0.00791006 4.50307e-21)
(0.157623 0.0119203 -3.02772e-22)
(0.155049 0.0154664 -4.14016e-21)
(0.152656 0.0185681 -8.57954e-21)
(0.150466 0.0212486 8.89271e-21)
(0.148486 0.0235292 8.0242e-21)
(0.146741 0.0254476 -8.39042e-21)
(0.145701 0.0275037 0)
(0.176177 -0.0640309 0)
(0.175543 -0.0654764 0)
(0.175285 -0.066777 0)
(0.175229 -0.0676825 -4.19602e-20)
(0.175345 -0.0681023 2.05289e-20)
(0.175606 -0.0679746 2.5087e-20)
(0.175988 -0.0672309 2.71975e-21)
(0.176443 -0.0657796 2.04957e-20)
(0.176904 -0.0635899 -1.14578e-21)
(0.177298 -0.0606444 -1.98679e-20)
(0.177543 -0.0569528 -1.13215e-21)
(0.177557 -0.0525587 -2.11259e-21)
(0.177266 -0.0475408 -4.69005e-21)
(0.176611 -0.0420095 3.51287e-21)
(0.175556 -0.0361007 -2.57093e-19)
(0.174091 -0.029965 2.57101e-19)
(0.172235 -0.0237565 2.55794e-21)
(0.170029 -0.0176215 -1.83118e-21)
(0.167538 -0.0116885 9.88034e-22)
(0.164835 -0.0060622 4.14042e-22)
(0.162002 -0.000820223 -5.84532e-21)
(0.159119 0.00398664 6.3997e-22)
(0.156259 0.00833191 5.15021e-21)
(0.153483 0.0122094 -5.09086e-22)
(0.150845 0.0156291 3.54034e-21)
(0.148385 0.0186123 4.01185e-21)
(0.146123 0.0211833 -7.85506e-21)
(0.144069 0.0233646 0)
(0.142248 0.0251972 0)
(0.141118 0.0271666 0)
(0.172344 -0.0648496 -4.76407e-20)
(0.171737 -0.0660713 5.02016e-20)
(0.171534 -0.0671794 0)
(0.171531 -0.0678836 -2.36126e-20)
(0.17169 -0.0680941 2.68582e-20)
(0.171981 -0.0677586 2.27237e-20)
(0.172384 -0.0667921 -2.89716e-20)
(0.172841 -0.0651294 0)
(0.173287 -0.0627444 -2.63947e-21)
(0.173648 -0.0596246 0)
(0.173844 -0.0557865 3.3956e-24)
(0.173796 -0.0512798 9.09066e-24)
(0.173433 -0.0461871 1.00117e-21)
(0.172701 -0.0406209 4.53236e-22)
(0.171568 -0.0347163 -2.67555e-19)
(0.170029 -0.028621 2.67539e-19)
(0.168103 -0.0224843 -3.14769e-22)
(0.165835 -0.0164463 -5.47609e-22)
(0.163288 -0.0106294 -4.23166e-23)
(0.160535 -0.00513174 -4.51203e-23)
(0.157657 -2.54441e-05 0)
(0.154729 0.00464338 6.62914e-22)
(0.151823 0.00885192 0)
(0.149001 0.0125968 -2.74038e-21)
(0.146313 0.0158897 3.73127e-21)
(0.143797 0.0187534 2.67234e-21)
(0.141475 0.0212128 -3.05471e-21)
(0.139356 0.0232917 0)
(0.137469 0.0250337 6.84082e-21)
(0.136253 0.0269082 -7.21173e-21)
(0.168011 -0.0655069 0)
(0.167441 -0.0665057 7.01857e-23)
(0.167298 -0.0674203 5.32654e-20)
(0.167351 -0.0679202 -5.09446e-20)
(0.167553 -0.0679201 3.12021e-21)
(0.167878 -0.0673683 -6.11274e-21)
(0.168299 -0.0661759 2.97603e-21)
(0.168755 -0.0643032 0)
(0.169183 -0.0617243 0)
(0.169509 -0.0584336 0)
(0.169654 -0.0544548 1.22419e-21)
(0.169542 -0.049843 -7.45923e-21)
(0.169108 -0.0446846 1.20294e-20)
(0.168301 -0.0390934 -5.88496e-21)
(0.167096 -0.0332031 -2.74073e-19)
(0.16549 -0.0271579 2.77137e-19)
(0.163505 -0.0211017 -3.47877e-21)
(0.161186 -0.0151683 6.49709e-21)
(0.158597 -0.00947318 -4.37221e-21)
(0.155809 -0.00410841 -4.02038e-22)
(0.152899 0.000859488 -2.9057e-22)
(0.149942 0.00538882 0)
(0.147007 0.0094601 0)
(0.144152 0.0130723 -4.43803e-22)
(0.141427 0.0162387 6.78677e-22)
(0.138868 0.0189828 -2.47636e-22)
(0.136498 0.0213299 -4.3311e-21)
(0.134324 0.0233048 4.03128e-21)
(0.13238 0.0249537 1.02698e-22)
(0.131086 0.026728 0)
(0.163131 -0.0659798 -5.25389e-20)
(0.162606 -0.0667597 4.87107e-20)
(0.16253 -0.0674757 2.30392e-20)
(0.162645 -0.0677659 -2.68056e-20)
(0.162892 -0.0675539 -2.87418e-20)
(0.163253 -0.0667738 2.94697e-20)
(0.16369 -0.065358 2.44359e-20)
(0.164145 -0.0632758 -2.18539e-20)
(0.164553 -0.0605059 1.2579e-20)
(0.164841 -0.05705 -1.12961e-20)
(0.164932 -0.0529387 1.09241e-20)
(0.164757 -0.0482324 -5.35083e-21)
(0.164253 -0.0430206 -3.9222e-21)
(0.163376 -0.0374177 2.30857e-22)
(0.162105 -0.0315552 -2.81709e-19)
(0.16044 -0.0255731 2.81687e-19)
(0.158406 -0.0196093 -1.45163e-22)
(0.15605 -0.0137907 -2.09051e-21)
(0.153432 -0.00822585 -1.20482e-21)
(0.150623 -0.00300033 3.01046e-21)
(0.147698 0.00182469 -1.68835e-21)
(0.144728 0.00621176 1.77306e-21)
(0.141779 0.0101444 -2.85688e-21)
(0.138906 0.0136236 2.52263e-21)
(0.136159 0.0166638 1.44895e-21)
(0.133571 0.0192888 -1.44808e-21)
(0.131164 0.021524 -1.28349e-21)
(0.128947 0.0233947 1.45754e-21)
(0.126955 0.0249493 4.48548e-21)
(0.125591 0.026621 -4.29218e-21)
(0.157652 -0.0662414 -3.45327e-21)
(0.15718 -0.0668058 -5.47159e-20)
(0.15718 -0.0673152 6.01892e-20)
(0.15736 -0.0673905 0)
(0.157659 -0.0669587 -3.4604e-21)
(0.158057 -0.0659445 0)
(0.15851 -0.0643069 -3.30988e-21)
(0.158962 -0.0620175 2.44783e-20)
(0.159348 -0.0590617 -2.63805e-20)
(0.159595 -0.0554492 1.4123e-21)
(0.159633 -0.0512169 -2.6135e-21)
(0.159394 -0.0464303 -1.18608e-21)
(0.158822 -0.0411813 -5.40277e-22)
(0.15788 -0.0355838 -2.39623e-22)
(0.15655 -0.0297666 -2.84676e-19)
(0.154836 -0.0238643 2.84666e-19)
(0.152765 -0.0180083 1.50675e-22)
(0.150385 -0.012318 2.48977e-22)
(0.147754 -0.00689462 -3.45914e-22)
(0.144941 -0.00181726 0)
(0.142017 0.00285833 -1.86691e-22)
(0.13905 0.00709874 -2.05089e-21)
(0.136103 0.0108902 2.34489e-21)
(0.133229 0.0142354 8.36492e-23)
(0.130474 0.0171494 0)
(0.127871 0.019656 -7.82021e-24)
(0.12544 0.0217803 0)
(0.123192 0.0235478 7.09476e-22)
(0.121162 0.0250084 -6.39411e-22)
(0.119736 0.0265768 1.69765e-22)
(0.151509 -0.0662585 -5.43791e-20)
(0.151104 -0.066604 5.71292e-20)
(0.151188 -0.0668984 9.66624e-23)
(0.151437 -0.0667554 3.21565e-20)
(0.151795 -0.0660903 -5.40479e-20)
(0.152231 -0.064843 3.25401e-20)
(0.152701 -0.0629854 3.40711e-21)
(0.153149 -0.0604932 3.8172e-23)
(0.15351 -0.0573598 0)
(0.153716 -0.0536027 -1.45849e-21)
(0.153698 -0.0492651 -7.51621e-21)
(0.153397 -0.0444167 1.15524e-20)
(0.152761 -0.039151 5.3744e-22)
(0.151759 -0.0335807 -1.52498e-21)
(0.150378 -0.0278307 -2.82515e-19)
(0.148626 -0.0220294 2.85513e-19)
(0.146532 -0.0163007 -1.35475e-21)
(0.144142 -0.0107559 -2.00124e-22)
(0.141515 -0.00548866 2.62224e-21)
(0.138715 -0.000571295 -2.2385e-21)
(0.13581 0.00394581 1.92796e-22)
(0.132864 0.00803312 0)
(0.129937 0.0116794 1.62036e-22)
(0.127078 0.0148884 -8.61057e-23)
(0.12433 0.0176756 -3.82431e-22)
(0.121726 0.0200645 1.29316e-21)
(0.119285 0.0220792 -5.67111e-22)
(0.117016 0.0237451 1.57755e-22)
(0.114959 0.0251129 1.62684e-22)
(0.113482 0.0265793 -3.38496e-22)
(0.144626 -0.0659831 0)
(0.144305 -0.066104 0)
(0.14448 -0.0661751 -3.38058e-20)
(0.144809 -0.0658059 2.73207e-20)
(0.145231 -0.0649005 0)
(0.145706 -0.0634226 -3.6602e-21)
(0.146192 -0.0613482 -3.60889e-21)
(0.146634 -0.0586606 -3.40238e-21)
(0.146969 -0.0553619 0)
(0.147131 -0.0514768 0)
(0.147059 -0.0470546 -1.38336e-21)
(0.146696 -0.0421684 5.27667e-21)
(0.146 -0.0369123 -5.79922e-21)
(0.144945 -0.0313966 -2.40632e-22)
(0.143522 -0.0257411 -2.80054e-19)
(0.141744 -0.0200671 2.80119e-19)
(0.139641 -0.0144899 1.34374e-22)
(0.137259 -0.00911243 -9.23159e-22)
(0.134654 -0.00401996 1.28974e-21)
(0.131886 0.00072203 0)
(0.129019 0.00506855 0)
(0.126114 0.00899378 0)
(0.123225 0.0124886 0)
(0.120399 0.0155578 -2.58922e-22)
(0.117676 0.0182168 -1.33786e-22)
(0.115086 0.0204879 0)
(0.112648 0.0223943 -2.57388e-21)
(0.110372 0.0239605 2.0896e-21)
(0.108299 0.0252376 0)
(0.106778 0.0266041 0)
(0.136914 -0.0653511 -3.98261e-21)
(0.136693 -0.0652395 0)
(0.136971 -0.0650829 0)
(0.137391 -0.0644732 0)
(0.137878 -0.0633282 0)
(0.138394 -0.0616224 0)
(0.138896 -0.059338 3.68582e-21)
(0.13933 -0.0564673 1.78764e-21)
(0.139636 -0.0530207 -1.27543e-20)
(0.139753 -0.0490305 2.80421e-21)
(0.139624 -0.0445512 2.39491e-20)
(0.139202 -0.0396581 -1.60809e-20)
(0.13845 -0.0344449 7.02132e-22)
(0.13735 -0.0290182 4.08268e-21)
(0.135897 -0.0234913 -2.7099e-19)
(0.134107 -0.0179772 2.70947e-19)
(0.132013 -0.0125819 1.55564e-21)
(0.129657 -0.00739888 -5.56678e-22)
(0.127093 -0.00250478 -2.14057e-21)
(0.124379 0.00204206 1.39601e-21)
(0.121573 0.00620205 -6.01727e-22)
(0.118729 0.00995295 3.34429e-22)
(0.115899 0.0132876 1.93028e-22)
(0.113125 0.0162112 2.64439e-22)
(0.110445 0.0187387 0)
(0.107887 0.0208912 0)
(0.105468 0.0226899 0)
(0.103198 0.0241583 0)
(0.101119 0.0253471 0)
(0.0995657 0.0266167 -3.59251e-22)
(0.12826 -0.0642754 8.20401e-21)
(0.128159 -0.0639251 -3.27449e-20)
(0.128554 -0.0635285 3.40218e-20)
(0.129071 -0.0626723 0)
(0.129627 -0.061291 -3.19914e-20)
(0.130183 -0.0593636 3.69722e-20)
(0.130699 -0.0568814 -3.16564e-20)
(0.131122 -0.0538463 2.67832e-20)
(0.131395 -0.0502773 0)
(0.131463 -0.0462134 1.03827e-20)
(0.131278 -0.0417131 -2.87914e-21)
(0.130799 -0.0368533 -1.55704e-20)
(0.129998 -0.0317254 5.29859e-21)
(0.128861 -0.0264309 1.64114e-21)
(0.127392 -0.0210753 -2.5772e-19)
(0.125607 -0.0157619 2.54996e-19)
(0.12354 -0.0105864 9.46911e-22)
(0.121233 -0.00563183 5.53218e-22)
(0.118735 -0.000965953 -1.06247e-21)
(0.116098 0.00336037 9.66977e-22)
(0.113376 0.00731296 -5.40335e-22)
(0.110619 0.010873 -2.52548e-22)
(0.107871 0.014035 -4.94733e-21)
(0.105173 0.0168043 3.96328e-21)
(0.102557 0.0191948 -4.70032e-21)
(0.10005 0.0212258 5.33734e-21)
(0.0976658 0.0229165 0)
(0.0954171 0.0242885 -5.64141e-21)
(0.0933462 0.0253912 5.46191e-21)
(0.091771 0.026567 9.65572e-22)
(0.118523 -0.0626328 2.61624e-20)
(0.118565 -0.0620365 -3.40588e-20)
(0.119089 -0.0613883 -3.00362e-20)
(0.119706 -0.0602888 3.56941e-20)
(0.120332 -0.0586771 3.75178e-20)
(0.120927 -0.0565409 -7.45203e-20)
(0.121451 -0.0538817 5.2241e-20)
(0.121856 -0.050711 -1.38328e-20)
(0.122091 -0.0470559 0)
(0.122108 -0.0429611 -1.21094e-20)
(0.121866 -0.0384884 1.08916e-20)
(0.121334 -0.0337142 -6.24348e-22)
(0.12049 -0.0287262 -1.94048e-21)
(0.11933 -0.023619 2.73147e-21)
(0.11786 -0.0184887 -2.34764e-19)
(0.116101 -0.0134274 2.33573e-19)
(0.114085 -0.00851918 8.55163e-22)
(0.111852 -0.00383623 -4.5313e-22)
(0.109447 0.000563407 -3.24562e-23)
(0.106917 0.00463649 -1.71509e-21)
(0.104309 0.00835426 1.7275e-21)
(0.101666 0.0117012 6.47647e-22)
(0.0990291 0.0146731 3.61696e-21)
(0.0964321 0.0172751 -9.59315e-21)
(0.0939051 0.0195196 1.28651e-20)
(0.0914711 0.0214237 -6.33969e-21)
(0.0891437 0.0230038 -8.07352e-21)
(0.0869344 0.0242794 7.81514e-21)
(0.0848866 0.0252976 6.53667e-21)
(0.0833018 0.0263821 -8.15338e-21)
(0.10752 -0.0602421 4.08836e-20)
(0.107726 -0.0593895 4.80492e-21)
(0.108385 -0.0584932 -5.7238e-21)
(0.109103 -0.0571571 -3.71511e-20)
(0.109795 -0.0553299 -4.34696e-21)
(0.110421 -0.0530093 6.39324e-21)
(0.110945 -0.0502074 5.73836e-23)
(0.111324 -0.0469448 0)
(0.111514 -0.043256 0)
(0.111475 -0.0391904 -1.21517e-20)
(0.111177 -0.034811 1.38323e-20)
(0.110596 -0.030192 6.288e-22)
(0.109721 -0.0254154 0)
(0.108552 -0.0205667 5.1788e-22)
(0.107103 -0.0157307 -2.04519e-19)
(0.105395 -0.0109871 2.03455e-19)
(0.103459 -0.006407 3.4019e-22)
(0.101332 -0.0020508 0)
(0.0990544 0.00203356 3.26874e-23)
(0.0966658 0.0058107 -2.37774e-21)
(0.0942065 0.00925728 2.21993e-21)
(0.0917135 0.0123608 -3.9367e-22)
(0.0892207 0.015118 0)
(0.0867576 0.0175335 1.68746e-22)
(0.08435 0.0196177 1.80012e-21)
(0.0820178 0.0213849 -1.12643e-21)
(0.0797728 0.0228485 1.05687e-20)
(0.0776263 0.0240251 -1.34667e-23)
(0.0756216 0.0249585 4.40968e-22)
(0.0740429 0.0259524 -8.2031e-21)
(0.0950005 -0.0568217 -3.82096e-20)
(0.0953848 -0.0557218 3.2696e-20)
(0.0961768 -0.0545867 0)
(0.0969879 -0.0530337 -3.40374e-20)
(0.0977333 -0.0510225 4.00396e-20)
(0.0983765 -0.0485617 -1.90627e-20)
(0.0988863 -0.0456734 3.13373e-20)
(0.0992265 -0.0423867 -1.44482e-20)
(0.0993621 -0.0387417 0)
(0.0992639 -0.0347906 0)
(0.0989106 -0.0305956 5.91648e-21)
(0.0982897 -0.0262262 -5.88838e-21)
(0.0973987 -0.0217562 0)
(0.0962449 -0.0172598 1.95367e-22)
(0.0948444 -0.0128086 -1.63441e-19)
(0.0932208 -0.00846798 1.63407e-19)
(0.0914029 -0.00429512 -3.58355e-23)
(0.0894231 -0.000337644 0)
(0.0873149 0.00336703 1.2219e-21)
(0.0851118 0.00679151 -1.12365e-21)
(0.0828457 0.00991776 0)
(0.0805465 0.012736 0)
(0.078241 0.0152437 6.79368e-21)
(0.0759534 0.0174442 -1.28083e-20)
(0.0737047 0.0193457 5.43282e-21)
(0.0715117 0.0209591 -1.24294e-20)
(0.069384 0.0222942 1.38627e-20)
(0.0673322 0.0233642 0)
(0.0653985 0.0242089 -1.30196e-20)
(0.0638484 0.025109 1.02881e-20)
(0.0806037 -0.0519248 -3.74826e-20)
(0.0811643 -0.0506058 3.64588e-20)
(0.082072 -0.0492639 -3.8644e-20)
(0.0829528 -0.0475416 6.4961e-23)
(0.0837264 -0.0454108 4.24073e-22)
(0.0843618 -0.04289 5.69197e-20)
(0.0848352 -0.0400098 -1.77645e-20)
(0.0851196 -0.0368058 -1.94796e-21)
(0.0851907 -0.033322 1.34171e-20)
(0.0850307 -0.0296105 -2.55171e-20)
(0.0846294 -0.0257297 1.20073e-20)
(0.0839847 -0.0217416 4.62088e-21)
(0.0831027 -0.0177089 -5.62116e-21)
(0.0819967 -0.013692 2.05737e-21)
(0.0806856 -0.00974693 -1.11565e-19)
(0.0791929 -0.00592325 1.10929e-19)
(0.0775441 -0.00226307 -3.04917e-22)
(0.075766 0.00119934 1.8079e-21)
(0.0738847 0.00443742 -1.26287e-21)
(0.0719254 0.00743178 -5.30896e-21)
(0.0699114 0.0101695 1.16535e-20)