/*--------------------------------*- C++ -*----------------------------------*\
  =========                 |
  \\      /  F ield         | OpenFOAM: The Open Source CFD Toolbox
   \\    /   O peration     | Website:  https://openfoam.org
    \\  /    A nd           | Version:  12
     \\/     M anipulation  |
\*---------------------------------------------------------------------------*/
FoamFile
{
    format      ascii;
    class       volVectorField;
    location    "180";
    object      UMean;
}
// * * * * * * * * * * * * * * * * * * * * * * * * * * * * * * * * * * * * * //

dimensions      [0 1 -1 0 0 0 0];

internalField   nonuniform List<vector> 
6750
(
(0.200076 -0.00305814 0)
(0.200386 -0.00924057 0)
(0.200694 -0.0148543 0)
(0.200959 -0.0199987 0)
(0.200878 -0.0247855 0)
(0.200036 -0.00346125 0)
(0.200292 -0.00988829 0)
(0.200513 -0.0154528 0)
(0.200617 -0.0203365 0)
(0.200534 -0.0246463 0)
(0.200026 -0.00363015 0)
(0.200135 -0.0101363 0)
(0.200169 -0.01559 0)
(0.200072 -0.020214 0)
(0.199862 -0.0241291 0)
(0.200009 -0.00366709 0)
(0.199965 -0.0101039 0)
(0.199804 -0.0153843 0)
(0.199526 -0.019767 0)
(0.199182 -0.0234076 0)
(0.199995 -0.00360238 0)
(0.199808 -0.0098404 0)
(0.199462 -0.0148904 0)
(0.199005 -0.0190356 0)
(0.198513 -0.0224545 0)
(0.199983 -0.00345319 0)
(0.199665 -0.00937983 0)
(0.199141 -0.0141412 0)
(0.1985 -0.0180293 0)
(0.197842 -0.0212301 0)
(0.199972 -0.00323379 0)
(0.19953 -0.00874948 0)
(0.198831 -0.0131618 0)
(0.198004 -0.0167584 0)
(0.197165 -0.0197211 0)
(0.199963 -0.00295527 0)
(0.199402 -0.00797236 0)
(0.198533 -0.0119767 0)
(0.197519 -0.0152406 0)
(0.196494 -0.0179343 0)
(0.199954 -0.00262738 0)
(0.199283 -0.00707135 0)
(0.198253 -0.0106143 0)
(0.197058 -0.0135046 0)
(0.19585 -0.0158957 0)
(0.199946 -0.00226005 0)
(0.199175 -0.00607144 0)
(0.197998 -0.00910881 0)
(0.196638 -0.0115898 0)
(0.195258 -0.0136473 0)
(0.19994 -0.00186385 0)
(0.199083 -0.00499979 0)
(0.197778 -0.00749918 0)
(0.196275 -0.00954339 0)
(0.194745 -0.0112422 0)
(0.199935 -0.00144963 0)
(0.199008 -0.00388439 0)
(0.197601 -0.00582628 0)
(0.195981 -0.00741609 0)
(0.194328 -0.00873954 0)
(0.199931 -0.00102789 0)
(0.198954 -0.00275247 0)
(0.197469 -0.00413016 0)
(0.195764 -0.0052582 0)
(0.194018 -0.00619821 0)
(0.199927 -0.00060802 0)
(0.198922 -0.00162899 0)
(0.197386 -0.00244712 0)
(0.195625 -0.00311559 0)
(0.193818 -0.00367284 0)
(0.199918 -0.000201783 0)
(0.198916 -0.000533764 0)
(0.197349 -0.000806096 0)
(0.19556 -0.00102656 0)
(0.193724 -0.00121015 0)
(0.199918 0.000201669 0)
(0.198916 0.000533618 0)
(0.197349 0.000805976 0)
(0.19556 0.00102649 0)
(0.193724 0.00121012 0)
(0.199927 0.000607905 0)
(0.198922 0.00162884 0)
(0.197386 0.002447 0)
(0.195625 0.00311552 0)
(0.193818 0.00367281 0)
(0.199931 0.00102778 0)
(0.198954 0.00275232 0)
(0.197469 0.00413004 0)
(0.195764 0.00525813 0)
(0.194018 0.00619819 0)
(0.199935 0.00144952 0)
(0.199008 0.00388425 0)
(0.197601 0.00582617 0)
(0.195981 0.00741603 0)
(0.194328 0.00873952 0)
(0.19994 0.00186374 0)
(0.199083 0.00499965 0)
(0.197778 0.00749907 0)
(0.196275 0.00954333 0)
(0.194745 0.0112422 0)
(0.199946 0.00225995 0)
(0.199175 0.00607131 0)
(0.197998 0.00910871 0)
(0.196638 0.0115898 0)
(0.195258 0.0136472 0)
(0.199954 0.00262728 0)
(0.199283 0.00707122 0)
(0.198253 0.0106142 0)
(0.197058 0.0135046 0)
(0.19585 0.0158957 0)
(0.199963 0.00295518 0)
(0.199402 0.00797224 0)
(0.198533 0.0119766 0)
(0.197519 0.0152406 0)
(0.196494 0.0179343 0)
(0.199972 0.00323371 0)
(0.19953 0.00874937 0)
(0.198831 0.0131617 0)
(0.198004 0.0167584 0)
(0.197165 0.0197211 0)
(0.199983 0.00345312 0)
(0.199665 0.00937973 0)
(0.199141 0.0141411 0)
(0.1985 0.0180293 0)
(0.197842 0.0212301 0)
(0.199995 0.00360232 0)
(0.199808 0.00984031 0)
(0.199462 0.0148903 0)
(0.199005 0.0190355 0)
(0.198513 0.0224545 0)
(0.200009 0.00366705 0)
(0.199965 0.0101038 0)
(0.199804 0.0153842 0)
(0.199526 0.0197669 0)
(0.199182 0.0234075 0)
(0.200026 0.00363012 0)
(0.200135 0.0101363 0)
(0.200169 0.0155899 0)
(0.200072 0.0202139 0)
(0.199862 0.0241289 0)
(0.200036 0.00346122 0)
(0.200292 0.00988821 0)
(0.200513 0.0154526 0)
(0.200617 0.0203363 0)
(0.200534 0.024646 0)
(0.200076 0.00305811 0)
(0.200386 0.00924048 0)
(0.200694 0.0148541 0)
(0.200959 0.0199985 0)
(0.200878 0.0247852 0)
(0.199075 -0.0353976 0)
(0.197629 -0.0403281 0)
(0.196436 -0.0447921 0)
(0.195666 -0.0487519 -4.26738e-24)
(0.195179 -0.0521129 0)
(0.194919 -0.0548248 0)
(0.194876 -0.0568305 -1.73668e-22)
(0.195036 -0.0580439 1.91164e-22)
(0.195374 -0.0583619 7.10827e-24)
(0.195829 -0.0577254 3.86921e-22)
(0.19637 -0.0559947 5.88192e-23)
(0.19692 -0.0530691 4.47988e-23)
(0.197402 -0.0489936 -2.5893e-22)
(0.197733 -0.0438352 -2.84985e-22)
(0.19784 -0.0377332 -6.65094e-22)
(0.19767 -0.0308923 6.65368e-22)
(0.197195 -0.0235659 -2.18061e-22)
(0.196417 -0.0160294 -1.17918e-22)
(0.195366 -0.00855703 1.29738e-22)
(0.194094 -0.00139585 1.60403e-22)
(0.192657 0.00525506 5.43181e-23)
(0.191136 0.0112806 2.16611e-24)
(0.189612 0.0165685 -9.51046e-22)
(0.188147 0.0210734 9.42613e-22)
(0.186792 0.0247943 0)
(0.185587 0.0277601 0)
(0.184563 0.0300184 3.2772e-23)
(0.183746 0.0316284 0)
(0.183164 0.032659 0)
(0.182791 0.0331514 0)
(0.198326 -0.0384444 0)
(0.197034 -0.0432761 0)
(0.196102 -0.0473414 0)
(0.195501 -0.0508394 3.97351e-24)
(0.19512 -0.0537616 0)
(0.194944 -0.0560747 0)
(0.194973 -0.0577156 1.25432e-21)
(0.195191 -0.0585954 -1.31097e-21)
(0.19557 -0.0586198 -6.7172e-24)
(0.196054 -0.0577376 0)
(0.196606 -0.055796 0)
(0.197145 -0.0527446 -4.69685e-22)
(0.197604 -0.0486248 4.71159e-22)
(0.197905 -0.0435058 0)
(0.197981 -0.0375207 -1.34819e-21)
(0.197784 -0.030859 1.34995e-21)
(0.197292 -0.0237506 0)
(0.196508 -0.0164459 2.74637e-22)
(0.195461 -0.00919159 -2.78099e-22)
(0.194199 -0.00221182 0)
(0.192785 0.00431118 0)
(0.191285 0.0102573 -1.99015e-24)
(0.189767 0.0155269 6.09036e-22)
(0.188297 0.0200718 -6.17754e-22)
(0.186925 0.0238825 0)
(0.185689 0.0269784 0)
(0.184616 0.0293982 -3.08082e-23)
(0.183728 0.0311913 0)
(0.183057 0.0324198 0)
(0.182605 0.0331433 0)
(0.197614 -0.0407993 0)
(0.196609 -0.045163 0)
(0.195841 -0.0488509 0)
(0.195324 -0.0520522 2.10029e-21)
(0.195012 -0.0547267 -2.12282e-21)
(0.194906 -0.0568187 2.22737e-21)
(0.195002 -0.0582537 -2.24829e-21)
(0.195284 -0.058941 2.72173e-23)
(0.195716 -0.0587944 0)
(0.196245 -0.0577603 0)
(0.196829 -0.0556841 -2.68943e-23)
(0.197384 -0.0525479 0)
(0.197843 -0.0483869 0)
(0.198127 -0.0432728 -3.03179e-24)
(0.198173 -0.0373368 -1.30274e-21)
(0.197935 -0.0307618 1.30378e-21)
(0.197395 -0.023767 -5.76186e-25)
(0.196558 -0.016589 0)
(0.195458 -0.00946015 0)
(0.194146 -0.00259034 -1.50991e-23)
(0.192683 0.00384806 0)
(0.191138 0.00972485 0)
(0.189578 0.0149601 1.38128e-23)
(0.188065 0.0195048 1.71108e-21)
(0.186647 0.0233464 -1.69512e-21)
(0.185363 0.0265001 2.3881e-21)
(0.184236 0.0289995 -2.36822e-21)
(0.183286 0.0308887 0)
(0.182543 0.0322304 0)
(0.182065 0.0331358 0)
(0.19698 -0.0429088 0)
(0.196175 -0.0468886 -5.95598e-21)
(0.195502 -0.0502766 2.92311e-21)
(0.195052 -0.0532202 6.41894e-21)
(0.19481 -0.0556607 -6.50265e-21)
(0.194776 -0.0575343 3.22789e-21)
(0.194942 -0.0587632 0)
(0.195293 -0.0592581 9.98999e-23)
(0.195781 -0.0589457 0)
(0.196369 -0.0577543 0)
(0.196993 -0.0555483 9.70354e-22)
(0.197576 -0.0523297 -9.12502e-22)
(0.198044 -0.0481286 0)
(0.198318 -0.0430196 3.18299e-24)
(0.198332 -0.0371324 -5.60293e-22)
(0.198044 -0.0306434 5.6503e-22)
(0.197437 -0.0237619 6.02267e-25)
(0.196522 -0.0167119 0)
(0.195335 -0.00971248 6.59395e-22)
(0.193932 -0.00296085 -6.10863e-22)
(0.192379 0.00338016 -3.45635e-23)
(0.190748 0.00918862 0)
(0.189106 0.0143841 8.55099e-23)
(0.187516 0.0189212 0)
(0.186025 0.0227863 -2.88645e-21)
(0.184672 0.0259917 5.8784e-21)
(0.18348 0.0285665 -6.31027e-21)
(0.182463 0.0305488 -3.6999e-21)
(0.181651 0.0319983 6.89629e-21)
(0.181167 0.033083 0)
(0.19632 -0.0449136 0)
(0.195638 -0.0485643 8.59176e-21)
(0.195043 -0.0516767 -8.41593e-21)
(0.194665 -0.0543698 0)
(0.194496 -0.0565792 0)
(0.194535 -0.0582368 1.43711e-22)
(0.194773 -0.0592624 0)
(0.195194 -0.0595675 -1.04503e-22)
(0.195745 -0.0590912 1.53498e-21)
(0.196393 -0.0577389 -1.5879e-21)
(0.197061 -0.0554056 -1.13019e-21)
(0.197674 -0.0521004 1.09873e-21)
(0.198152 -0.0478534 2.0854e-23)
(0.198412 -0.0427419 -5.06098e-24)
(0.198391 -0.0368942 8.95906e-22)
(0.198045 -0.0304817 -8.89129e-22)
(0.19736 -0.0237052 -1.03569e-23)
(0.196351 -0.0167773 2.96332e-23)
(0.195059 -0.00990484 -1.11207e-21)
(0.193545 -0.0032734 1.07558e-21)
(0.191878 0.00296401 1.50021e-21)
(0.190135 0.00869295 -1.45354e-21)
(0.188386 0.0138365 -8.96143e-23)
(0.186694 0.0183519 0)
(0.185109 0.0222257 1.29304e-22)
(0.18367 0.0254684 0)
(0.182398 0.0281058 0)
(0.181305 0.0301707 8.43246e-21)
(0.180419 0.0317175 -8.03549e-21)
(0.179926 0.0329708 0)
(0.195568 -0.0468209 1.08001e-20)
(0.194966 -0.0501631 -1.68611e-20)
(0.194448 -0.0530159 5.47558e-21)
(0.194144 -0.0554723 0)
(0.19405 -0.057463 5.28369e-21)
(0.194162 -0.058915 -5.14489e-21)
(0.194473 -0.0597462 4.60167e-21)
(0.194965 -0.0598704 -4.72064e-21)
(0.19558 -0.0592329 0)
(0.196285 -0.0577204 -1.16449e-22)
(0.196995 -0.0552616 1.26881e-21)
(0.197634 -0.0518655 -8.2603e-22)
(0.198117 -0.0475646 -2.41127e-22)
(0.198359 -0.042439 -2.48088e-22)
(0.198297 -0.0366166 3.13412e-21)
(0.197887 -0.0302652 -3.13572e-21)
(0.197118 -0.0235785 5.12185e-22)
(0.196008 -0.0167598 8.29786e-23)
(0.194603 -0.0100055 9.27939e-22)
(0.192966 -0.00349034 -1.57379e-21)
(0.191174 0.00264192 -1.33303e-22)
(0.189306 0.00828384 0)
(0.187435 0.0133637 4.52566e-21)
(0.185626 0.0178419 -4.64001e-21)
(0.183931 0.0217064 5.02784e-21)
(0.18239 0.0249669 -4.78203e-21)
(0.181026 0.0276473 -3.35111e-22)
(0.179847 0.0297761 -5.04873e-21)
(0.178878 0.0314025 1.40757e-20)
(0.178363 0.0328034 -9.69014e-21)
(0.194687 -0.0486219 -6.51003e-21)
(0.194141 -0.0516741 7.34934e-21)
(0.193697 -0.0542879 7.1408e-21)
(0.193467 -0.0565253 -7.23394e-21)
(0.193446 -0.0583111 6.39091e-21)
(0.193632 -0.0595682 -6.8391e-21)
(0.194017 -0.0602138 -2.19867e-22)
(0.194576 -0.0601656 0)
(0.195255 -0.0593669 2.19181e-21)
(0.196012 -0.0576964 -2.81005e-22)
(0.196759 -0.0551121 -3.29838e-22)
(0.197418 -0.0516204 -1.48124e-21)
(0.197899 -0.0472572 -2.19792e-22)
(0.198117 -0.0421057 2.41203e-22)
(0.198008 -0.0362944 6.22255e-21)
(0.19753 -0.0299883 -5.98712e-21)
(0.196673 -0.0233758 -9.29202e-22)
(0.195459 -0.0166525 7.87734e-22)
(0.193938 -0.0100057 2.08388e-21)
(0.192176 -0.00360073 4.33325e-22)
(0.190255 0.00242722 3.70269e-22)
(0.188255 0.00797775 -2.54778e-21)
(0.186255 0.0129846 0)
(0.184321 0.017412 -2.25562e-22)
(0.182508 0.02125 5.62576e-21)
(0.180855 0.024509 -5.89345e-21)
(0.179388 0.0272115 6.01266e-21)
(0.178114 0.0293837 -5.57564e-21)
(0.177055 0.0310698 -5.08929e-21)
(0.176501 0.0325919 5.78981e-21)
(0.193644 -0.0503195 0)
(0.193141 -0.0531041 7.5394e-21)
(0.192767 -0.0555004 -9.14988e-21)
(0.19261 -0.057535 8.2833e-21)
(0.192663 -0.0591277 -7.92493e-21)
(0.192922 -0.0601989 6.65598e-21)
(0.19338 -0.0606652 -6.76359e-21)
(0.194 -0.0604515 -4.09521e-22)
(0.19474 -0.0594875 -1.80709e-22)
(0.195542 -0.0576613 -1.53135e-22)
(0.19632 -0.0549498 -1.12816e-22)
(0.196991 -0.0513566 4.05645e-23)
(0.197462 -0.0469227 -2.46291e-22)
(0.197649 -0.0417345 2.60998e-22)
(0.197487 -0.0359212 1.01923e-20)
(0.196937 -0.0296464 -1.0558e-20)
(0.195991 -0.0230941 -5.74878e-22)
(0.194674 -0.0164534 7.66066e-22)
(0.193037 -0.00990379 -8.2974e-23)
(0.191152 -0.00360241 -3.49104e-22)
(0.189103 0.00232356 -2.0695e-22)
(0.186973 0.00778049 -2.20661e-22)
(0.184843 0.0127076 -4.60544e-22)
(0.182782 0.0170732 7.54704e-21)
(0.180846 0.0208701 -7.53289e-21)
(0.179077 0.0241099 7.22746e-21)
(0.177501 0.026815 -6.70566e-21)
(0.176124 0.0290102 6.18563e-21)
(0.174968 0.0307363 -7.37768e-21)
(0.174361 0.0323516 0)
(0.192411 -0.0519218 0)
(0.191942 -0.0544615 6.24745e-22)
(0.191638 -0.0566596 -8.1254e-21)
(0.191551 -0.0585052 3.73784e-22)
(0.191676 -0.0599146 9.2195e-21)
(0.192007 -0.0608067 5.10413e-22)
(0.192534 -0.0610979 5.14499e-22)
(0.193212 -0.0607219 -2.88817e-21)
(0.194007 -0.0595886 3.5986e-21)
(0.194845 -0.0576087 -1.08847e-23)
(0.195646 -0.0547655 -8.70924e-22)
(0.19632 -0.0510649 8.76151e-22)
(0.196773 -0.0465521 -7.35385e-23)
(0.196922 -0.0413172 9.77541e-23)
(0.196702 -0.0354908 1.52383e-20)
(0.196077 -0.0292352 -1.52461e-20)
(0.195041 -0.0227308 -5.59139e-22)
(0.193622 -0.0161614 6.30184e-22)
(0.191874 -0.00969956 -1.51662e-21)
(0.189871 -0.00349502 2.0191e-21)
(0.187698 0.00233225 -3.15728e-23)
(0.185443 0.00769503 -4.08747e-21)
(0.183187 0.0125379 4.49589e-21)
(0.181001 0.0168334 5.61492e-22)
(0.178943 0.0205772 5.00371e-22)
(0.177057 0.0237826 -8.55653e-21)
(0.175369 0.0264728 -6.61795e-23)
(0.173887 0.0286719 9.4159e-21)
(0.17263 0.0304191 0)
(0.171954 0.0320995 0)
(0.190957 -0.0534377 0)
(0.190519 -0.0557533 -1.14742e-20)
(0.190282 -0.0577693 3.77702e-22)
(0.190266 -0.0594372 4.74514e-22)
(0.19046 -0.0606707 1.98609e-20)
(0.19086 -0.0613885 -1.0108e-20)
(0.191451 -0.0615084 -5.37715e-22)
(0.192184 -0.0609681 0)
(0.193025 -0.0596627 3.00504e-21)
(0.193892 -0.0575279 -3.09707e-21)
(0.194706 -0.0545487 9.42008e-22)
(0.195373 -0.0507345 -3.91253e-22)
(0.1958 -0.0461356 -5.59396e-22)
(0.195903 -0.0408455 -2.68156e-24)
(0.195621 -0.0349965 2.13402e-20)
(0.194919 -0.02875 -2.13589e-20)
(0.193794 -0.0222836 4.03104e-23)
(0.192276 -0.015776 1.66421e-21)
(0.190422 -0.00939359 2.63866e-22)
(0.188307 -0.00327961 -2.41572e-21)
(0.186019 0.00245262 4.83404e-21)
(0.183646 0.0077219 -4.56668e-21)
(0.181272 0.0124779 0)
(0.178967 0.0166972 -5.86899e-22)
(0.176792 0.0203784 1.0079e-20)
(0.174791 0.0235371 -2.06179e-20)
(0.172992 0.0261972 -4.92702e-23)
(0.171403 0.0283833 -4.66139e-22)
(0.170044 0.0301341 9.47362e-21)
(0.169289 0.0318533 0)
(0.189253 -0.0548756 -1.6531e-21)
(0.188846 -0.0569849 0)
(0.188675 -0.0588313 -7.43218e-22)
(0.188728 -0.06033 1.09987e-20)
(0.18899 -0.0613927 -1.20368e-20)
(0.189456 -0.0619389 1.05346e-20)
(0.190103 -0.0618901 -1.05748e-20)
(0.190887 -0.061179 -4.19808e-21)
(0.191764 -0.0596994 8.37946e-21)
(0.192653 -0.0574074 -5.74524e-22)
(0.19347 -0.0542873 -2.71158e-21)
(0.194121 -0.0503539 5.6559e-22)
(0.194513 -0.0456626 -5.15886e-22)
(0.194565 -0.0403105 3.97445e-23)
(0.194216 -0.0344315 2.85564e-20)
(0.193436 -0.0281865 -2.89485e-20)
(0.192223 -0.0217502 1.08196e-21)
(0.19061 -0.0152969 1.16181e-21)
(0.188656 -0.00898734 -1.96399e-21)
(0.186438 -0.00295856 5.59941e-21)
(0.184044 0.00268221 7.44343e-22)
(0.181562 0.00785931 -1.0242e-20)
(0.179078 0.0125271 5.55604e-21)
(0.176663 0.0166661 1.17131e-20)
(0.174378 0.0202779 -1.15509e-20)
(0.172268 0.02338 1.1561e-20)
(0.170361 0.0259976 -1.22043e-20)
(0.168668 0.0281561 7.43899e-22)
(0.167209 0.029895 0)
(0.166367 0.0316295 -1.21363e-21)
(0.18727 -0.0562419 1.7193e-21)
(0.186893 -0.0581593 -1.48022e-20)
(0.186788 -0.0598452 1.41588e-20)
(0.186908 -0.0611802 8.20458e-22)
(0.187236 -0.0620749 7.88081e-22)
(0.187764 -0.0624491 0)
(0.188459 -0.0622322 -7.18852e-22)
(0.18929 -0.0613423 -5.31387e-21)
(0.190194 -0.0596874 8.43015e-21)
(0.191095 -0.0572338 -4.19999e-21)
(0.191906 -0.0539682 -1.62885e-22)
(0.192532 -0.0499107 5.65727e-22)
(0.192882 -0.045122 -5.68762e-22)
(0.192876 -0.0397029 8.51476e-24)
(0.192458 -0.0337889 3.72387e-20)
(0.191598 -0.0275401 -3.72174e-20)
(0.190299 -0.0211286 -5.6883e-23)
(0.188597 -0.0147244 2.31388e-21)
(0.18655 -0.00848286 -2.30137e-21)
(0.184237 -0.00253511 -3.30254e-22)
(0.181746 0.00301724 5.86535e-21)
(0.179167 0.00810367 -1.30476e-20)
(0.176584 0.0126829 5.56788e-21)
(0.174069 0.0167391 -8.80798e-22)
(0.171682 0.0202765 0)
(0.169471 0.0233147 7.971e-22)
(0.167463 0.0258801 7.87142e-22)
(0.165669 0.027999 -1.27132e-20)
(0.164113 0.0297127 1.17363e-20)
(0.163183 0.0314424 1.26209e-21)
(0.184974 -0.057541 0)
(0.184629 -0.0592767 -7.10399e-23)
(0.18459 -0.0608075 1.52768e-20)
(0.184775 -0.0619813 -1.55742e-20)
(0.185166 -0.0627083 -1.40027e-20)
(0.185751 -0.0629095 2.1372e-20)
(0.186492 -0.0625201 -5.764e-21)
(0.18736 -0.0614446 -3.61349e-23)
(0.188284 -0.0596119 -6.11632e-22)
(0.189187 -0.0569923 0)
(0.189983 -0.0535767 -1.12729e-21)
(0.190576 -0.0493914 1.69202e-21)
(0.190876 -0.0445021 -5.59414e-22)
(0.190807 -0.0390132 -8.90957e-24)
(0.190316 -0.0330614 4.72716e-20)
(0.189377 -0.0268062 -4.72946e-20)
(0.187996 -0.0204169 5.95239e-23)
(0.186208 -0.014059 2.68756e-21)
(0.184076 -0.00788252 -5.72941e-21)
(0.181678 -0.00201315 3.03442e-21)
(0.179102 0.00345293 0)
(0.176437 0.00845 -9.59085e-22)
(0.173766 0.0129408 -8.85e-23)
(0.171162 0.0169127 8.68505e-21)
(0.168685 0.0203725 -2.2153e-20)
(0.166381 0.0233415 1.52591e-20)
(0.16428 0.0258474 1.51273e-20)
(0.162392 0.0279173 -1.57259e-20)
(0.160744 0.0295951 -8.26096e-23)
(0.159725 0.0313033 0)
(0.18233 -0.0587735 0)
(0.182019 -0.0603334 -1.61936e-20)
(0.182045 -0.0617111 1.76251e-20)
(0.182295 -0.0627239 1.52426e-20)
(0.182747 -0.063281 -1.66242e-20)
(0.183383 -0.0633072 -8.01109e-21)
(0.184167 -0.0627366 8.18459e-22)
(0.185063 -0.0614699 7.31902e-21)
(0.185998 -0.0594558 1.30338e-21)
(0.186896 -0.0566659 0)
(0.187667 -0.053097 0)
(0.188218 -0.0487816 -4.29677e-22)
(0.188462 -0.0437904 5.4987e-22)
(0.188327 -0.0382311 0)
(0.187761 -0.0322416 5.88779e-20)
(0.186743 -0.0259802 -5.88812e-20)
(0.185282 -0.0196129 0)
(0.183416 -0.013301 -2.91111e-21)
(0.181207 -0.00718899 3.51524e-21)
(0.178734 -0.00139707 0)
(0.176083 0.00398373 0)
(0.173344 0.00889218 2.09479e-21)
(0.170598 0.0132947 -7.73873e-21)
(0.167916 0.0171816 -2.21209e-22)
(0.16536 0.0205617 7.66641e-21)
(0.162975 0.0234581 1.75187e-20)
(0.160789 0.0258992 -1.83169e-20)
(0.158815 0.0279133 -1.66371e-20)
(0.157082 0.0295466 1.72468e-20)
(0.155976 0.0312201 0)
(0.179297 -0.0599367 0)
(0.179025 -0.0613205 0)
(0.179117 -0.0625452 0)
(0.179431 -0.0633946 -1.68757e-20)
(0.179942 -0.0637772 8.62014e-21)
(0.180621 -0.0636251 9.57892e-21)
(0.181445 -0.0628615 9.6585e-22)
(0.182361 -0.0614001 6.13276e-21)
(0.1833 -0.0592001 -1.15618e-21)
(0.184183 -0.0562362 -5.09811e-21)
(0.184922 -0.0525119 -1.98334e-22)
(0.185424 -0.0480658 -2.17993e-22)
(0.185606 -0.0429738 1.0246e-22)
(0.185399 -0.0373462 -9.81144e-23)
(0.184758 -0.0313218 7.21863e-20)
(0.183663 -0.0250571 -7.21803e-20)
(0.182126 -0.0187148 -1.59319e-21)
(0.180188 -0.0124511 1.08515e-21)
(0.177911 -0.00640525 -9.49998e-22)
(0.175373 -0.000691765 -5.496e-22)
(0.172661 0.00460331 9.33845e-21)
(0.169859 0.009423 6.11373e-22)
(0.16705 0.0137372 -9.59726e-21)
(0.164304 0.0175385 1.30299e-21)
(0.16168 0.0208379 -8.74335e-21)
(0.159224 0.0236595 -1.13199e-20)
(0.156964 0.0260322 2.06628e-20)
(0.154912 0.0279855 0)
(0.153101 0.029568 0)
(0.151914 0.0311971 0)
(0.175833 -0.0610201 -2.12417e-20)
(0.175604 -0.0622261 2.24129e-20)
(0.175761 -0.0632949 0)
(0.17614 -0.0639759 -9.88676e-21)
(0.176705 -0.0641781 1.11623e-20)
(0.177429 -0.0638396 8.54191e-21)
(0.178285 -0.0628732 -1.08054e-20)
(0.179214 -0.0612132 0)
(0.180149 -0.0588228 -7.50136e-22)
(0.181009 -0.0556824 0)
(0.181707 -0.0518022 -1.27914e-24)
(0.182153 -0.0472273 5.4744e-24)
(0.182268 -0.042038 5.59584e-24)
(0.181988 -0.0363472 -4.94686e-23)
(0.18127 -0.0302937 8.74492e-20)
(0.1801 -0.024032 -8.74685e-20)
(0.178494 -0.0177205 1.95352e-22)
(0.176491 -0.0115103 4.71604e-22)
(0.174156 -0.00553472 -4.7125e-23)
(0.171564 9.72049e-05 -5.10097e-23)
(0.168801 0.00530445 0)
(0.165951 0.0100341 -1.29358e-21)
(0.163093 0.0142591 0)
(0.160295 0.0179744 8.5702e-21)
(0.157615 0.0211924 -1.10701e-20)
(0.155099 0.0239379 -9.90249e-21)
(0.152775 0.0262403 1.10124e-20)
(0.150655 0.0281297 0)
(0.148774 0.029657 -1.79703e-20)
(0.14751 0.0312346 1.94442e-20)
(0.171887 -0.0620085 0)
(0.171705 -0.0630327 8.95919e-23)
(0.171931 -0.0639401 2.40856e-20)
(0.172375 -0.0644451 -2.29146e-20)
(0.172991 -0.0644603 1.34794e-21)
(0.173757 -0.0639225 -2.46285e-21)
(0.174639 -0.0627461 1.09839e-21)
(0.175575 -0.0608832 0)
(0.176498 -0.058299 0)
(0.177328 -0.0549811 0)
(0.177977 -0.0509471 2.16409e-22)
(0.178362 -0.0462478 -2.90186e-22)
(0.178405 -0.0409679 1.44422e-22)
(0.178049 -0.0352223 6.48292e-22)
(0.177256 -0.0291491 1.04369e-19)
(0.176015 -0.0228998 -1.05545e-19)
(0.174344 -0.0166283 2.65344e-21)
(0.172286 -0.0104798 -6.82682e-21)
(0.169902 -0.00458148 5.16544e-21)
(0.167269 0.000963411 6.4907e-22)
(0.164468 0.00607881 7.56791e-22)
(0.161583 0.0107158 0)
(0.158688 0.01485 0)
(0.155852 0.0184784 1.52769e-21)
(0.153129 0.0216142 -3.19447e-21)
(0.150565 0.0242831 1.65133e-21)
(0.148187 0.0265141 2.49157e-20)
(0.146008 0.0283378 -2.27448e-20)
(0.144066 0.0298072 1.27088e-22)
(0.142733 0.0313288 0)
(0.167404 -0.0628781 -2.52724e-20)
(0.167272 -0.0637182 2.34531e-20)
(0.16757 -0.0644541 1.08038e-20)
(0.168079 -0.0647727 -1.25395e-20)
(0.168747 -0.0645926 -1.23368e-20)
(0.169553 -0.0638413 1.26104e-20)
(0.170454 -0.0624507 9.06472e-21)
(0.171391 -0.06038 -8.14593e-21)
(0.172295 -0.0576001 3.55542e-21)
(0.173086 -0.0541062 -3.15105e-21)
(0.17368 -0.0499229 1.54029e-21)
(0.173998 -0.045107 -1.16518e-21)
(0.173967 -0.0397469 -1.79743e-22)
(0.173534 -0.0339586 -4.10209e-23)
(0.172666 -0.0278789 1.24241e-19)
(0.171359 -0.0216555 -1.24268e-19)
(0.169631 -0.0154368 1.33368e-22)
(0.167526 -0.00936161 2.92975e-21)
(0.165105 -0.00355056 3.26082e-21)
(0.162444 0.00189915 -5.79355e-21)
(0.15962 0.00691649 5.95819e-21)
(0.156713 0.0114563 -5.75168e-21)
(0.153796 0.0154969 1.61804e-20)
(0.150935 0.0190367 -1.40749e-20)
(0.148183 0.0220897 -1.27044e-20)
(0.145583 0.0246815 1.24062e-20)
(0.143161 0.0268408 1.40076e-20)
(0.140933 0.0285982 -1.53068e-20)
(0.138938 0.0300084 -2.6149e-20)
(0.137542 0.0314714 2.48154e-20)
(0.162318 -0.0635998 -1.74952e-21)
(0.162241 -0.0642501 -2.72226e-20)
(0.162616 -0.0648017 2.9978e-20)
(0.163191 -0.0649231 0)
(0.163911 -0.0645345 -1.61308e-21)
(0.164753 -0.0635593 0)
(0.165669 -0.0619497 -1.35602e-21)
(0.166601 -0.0596681 8.37088e-21)
(0.167478 -0.0566929 -8.93613e-21)
(0.168223 -0.0530273 3.64192e-22)
(0.168756 -0.0487031 -4.67666e-22)
(0.169001 -0.0437825 -9.41887e-23)
(0.168893 -0.0383568 1.62834e-23)
(0.168383 -0.0325425 4.25782e-23)
(0.167445 -0.0264739 1.46121e-19)
(0.166076 -0.0202941 -1.46135e-19)
(0.1643 -0.0141453 -1.38431e-22)
(0.162159 -0.00815882 -3.29866e-22)
(0.159715 -0.00244849 8.16154e-22)
(0.157038 0.00289489 0)
(0.154206 0.00780538 9.58464e-22)
(0.151293 0.0122415 1.4823e-20)
(0.14837 0.0161841 -1.53067e-20)
(0.145497 0.0196326 -2.09538e-21)
(0.142729 0.0226015 0)
(0.140106 0.0251158 -2.08257e-21)
(0.137652 0.0272034 0)
(0.135385 0.0288946 -2.82712e-20)
(0.133345 0.0302454 2.94697e-20)
(0.131893 0.0316488 -1.74093e-21)
(0.156551 -0.0641341 -2.82147e-20)
(0.156538 -0.0645834 2.96009e-20)
(0.156992 -0.0649362 1.20505e-22)
(0.157635 -0.0648506 1.56687e-20)
(0.15841 -0.0642365 -2.56514e-20)
(0.159284 -0.0630317 1.50262e-20)
(0.160211 -0.0611986 1.39585e-21)
(0.161131 -0.0587053 5.5312e-23)
(0.161975 -0.0555385 0)
(0.162667 -0.0517096 -3.76103e-22)
(0.163132 -0.0472572 -8.47963e-22)
(0.1633 -0.0422486 1.4434e-21)
(0.163112 -0.0367772 -3.68515e-23)
(0.162527 -0.0309589 5.32126e-22)
(0.161522 -0.0249244 1.69974e-19)
(0.1601 -0.0188111 -1.71741e-19)
(0.158285 -0.0127538 1.34432e-21)
(0.156121 -0.00687604 4.05511e-22)
(0.153667 -0.00128391 -8.2563e-21)
(0.150992 0.0039384 7.32722e-21)
(0.148168 0.0087302 -9.89801e-22)
(0.145265 0.0130537 0)
(0.142351 0.0168918 -2.12907e-21)
(0.139484 0.0202449 2.15691e-21)
(0.136714 0.0231274 -1.57702e-20)
(0.13408 0.0255633 3.77393e-20)
(0.131606 0.0275795 -1.51607e-20)
(0.129309 0.0292051 1.91794e-22)
(0.127233 0.0304971 -3.10321e-20)
(0.125732 0.0318411 3.31766e-20)
(0.15001 -0.0644253 0)
(0.150071 -0.0646596 0)
(0.150611 -0.0648004 -1.76946e-20)
(0.151326 -0.0644928 1.43789e-20)
(0.152156 -0.0636411 0)
(0.153059 -0.062202 -1.67441e-21)
(0.153991 -0.060143 -1.58626e-21)
(0.154892 -0.0574405 -1.30117e-21)
(0.155695 -0.0540901 0)
(0.156327 -0.0501114 0)
(0.156719 -0.0455496 -2.4828e-22)
(0.156807 -0.040476 3.31034e-23)
(0.156539 -0.0349852 9.34714e-23)
(0.15588 -0.0291913 6.08333e-23)
(0.154814 -0.0232202 1.97855e-19)
(0.153347 -0.0172024 -1.97949e-19)
(0.151506 -0.0112642 -1.7706e-22)
(0.149334 -0.00552036 2.85797e-21)
(0.146887 -6.87495e-05 -3.69778e-21)
(0.144231 0.0050135 0)
(0.141432 0.00967107 0)
(0.138559 0.0138698 0)
(0.135672 0.0175945 0)
(0.132827 0.0208461 -2.62274e-21)
(0.130071 0.0236385 -2.40794e-21)
(0.127441 0.0259945 0)
(0.12496 0.0279389 -2.20011e-20)
(0.122644 0.0294999 1.68055e-20)
(0.120541 0.0307342 0)
(0.118996 0.0320197 0)
(0.142584 -0.0643989 -2.25763e-21)
(0.142732 -0.0644028 0)
(0.143363 -0.0643187 0)
(0.144157 -0.0637705 0)
(0.14504 -0.062675 0)
(0.145969 -0.060998 0)
(0.146901 -0.0587145 1.62007e-21)
(0.147776 -0.0558106 7.33011e-22)
(0.14853 -0.0522909 -3.96579e-21)
(0.149095 -0.048183 1.78261e-21)
(0.149407 -0.0435379 4.28258e-21)
(0.149412 -0.0384302 -1.27238e-21)
(0.149064 -0.0329545 7.66387e-22)
(0.148335 -0.0272215 -8.42693e-22)
(0.147216 -0.0213512 2.28058e-19)
(0.145716 -0.0154653 -2.28108e-19)
(0.143863 -0.00968075 -3.632e-21)
(0.141699 -0.00410261 -6.17275e-22)
(0.139279 0.00118027 1.34303e-20)
(0.136662 0.00609817 -1.79463e-20)
(0.133911 0.0106013 6.1877e-22)
(0.131087 0.0146591 1.0407e-20)
(0.128249 0.0182582 1.44349e-21)
(0.125445 0.0213996 2.67862e-21)
(0.122721 0.0240964 0)
(0.12011 0.0263693 0)
(0.117635 0.0282412 0)
(0.115313 0.0297381 0)
(0.113191 0.0309163 0)
(0.111611 0.0321446 -2.49391e-21)
(0.134136 -0.0639531 4.74729e-21)
(0.134385 -0.0637118 -1.89757e-20)
(0.135119 -0.0633842 1.97308e-20)
(0.135994 -0.062584 0)
(0.136927 -0.0612408 -1.65414e-20)
(0.137879 -0.0593265 1.90981e-20)
(0.138803 -0.0568263 -1.40446e-20)
(0.139643 -0.053736 1.19155e-20)
(0.140338 -0.0500698 0)
(0.140828 -0.0458627 2.3487e-21)
(0.141056 -0.0411708 -1.8314e-21)
(0.140975 -0.0360704 -1.10346e-21)
(0.140548 -0.0306548 -2.43342e-22)
(0.139756 -0.0250297 -9.13999e-22)
(0.138593 -0.0193072 2.62181e-19)
(0.137075 -0.0135993 -2.59543e-19)
(0.135228 -0.00801189 -1.68508e-21)
(0.133093 -0.0026394 -4.14713e-21)
(0.130722 0.00243903 1.49804e-20)
(0.128168 0.00716155 1.08273e-21)
(0.125489 0.0114841 -1.23608e-20)
(0.12274 0.0153797 -1.56461e-21)
(0.119973 0.0188365 -2.80466e-20)
(0.117233 0.0218554 2.27325e-20)
(0.114562 0.0244479 -2.18315e-20)
(0.111989 0.0266327 2.43908e-20)
(0.109537 0.0284295 0)
(0.107222 0.0298623 -2.35087e-20)
(0.105093 0.0309855 2.27606e-20)
(0.103483 0.0321579 5.32764e-21)
(0.124494 -0.0629442 1.5846e-20)
(0.124861 -0.0624421 -2.06045e-20)
(0.125707 -0.0618546 -1.75973e-20)
(0.126662 -0.0607982 2.10426e-20)
(0.127644 -0.0592074 2.03196e-20)
(0.128609 -0.0570641 -3.88762e-20)
(0.129516 -0.054364 2.55519e-20)
(0.13031 -0.0511138 -6.41924e-21)
(0.130937 -0.0473363 0)
(0.131344 -0.0430732 -2.87593e-21)
(0.131482 -0.0383846 2.6695e-21)
(0.131313 -0.033347 -1.54625e-23)
(0.130812 -0.0280505 5.93651e-22)
(0.129964 -0.0225938 -1.12108e-21)
(0.128772 -0.0170794 2.97899e-19)
(0.127252 -0.0116079 -2.96442e-19)
(0.125433 -0.0062727 -3.21545e-21)
(0.123353 -0.0011565 2.25375e-21)
(0.121058 0.00367198 -7.18948e-22)
(0.118597 0.00815922 -1.54059e-20)
(0.11602 0.0122671 1.38573e-20)
(0.113375 0.0159721 3.32256e-21)
(0.110708 0.0192637 1.54712e-20)
(0.108059 0.0221425 -3.7948e-20)
(0.105465 0.024618 4.80635e-20)
(0.102954 0.0267061 -2.34218e-20)
(0.100545 0.0284231 -2.70791e-20)
(0.0982535 0.02979 2.62124e-20)
(0.0961313 0.0308585 2.41924e-20)
(0.0945017 0.0319752 -3.06176e-20)
(0.113438 -0.0611626 2.57623e-20)
(0.113941 -0.0603843 3.05813e-21)
(0.114899 -0.0595329 -4.07056e-21)
(0.115932 -0.0582212 -2.28537e-20)
(0.116954 -0.0563932 -2.46132e-21)
(0.117922 -0.0540417 3.4687e-21)
(0.118798 -0.051174 7.54604e-23)
(0.119532 -0.0478068 0)
(0.120079 -0.0439713 0)
(0.120392 -0.0397146 -2.95061e-21)
(0.120436 -0.0350989 3.2676e-21)
(0.120181 -0.0301992 1.55723e-23)
(0.119611 -0.0250998 0)
(0.118721 -0.0198905 -4.67575e-22)
(0.117518 -0.0146622 3.37459e-19)
(0.116021 -0.00950189 -3.35851e-19)
(0.114257 -0.00448947 -1.36233e-21)
(0.112264 0.00030544 0)
(0.110079 0.00482526 7.2407e-22)
(0.107746 0.00902526 -1.21613e-20)
(0.105307 0.0128734 1.18033e-20)
(0.102802 0.0163497 -1.74625e-21)
(0.100271 0.0194446 0)
(0.0977475 0.0221579 1.94158e-22)
(0.095263 0.024497 5.64211e-21)
(0.0928425 0.0264743 -3.6004e-21)
(0.0905021 0.0281024 3.00067e-20)
(0.088258 0.0293982 -2.51433e-23)
(0.0861614 0.0304102 2.63641e-21)
(0.084524 0.0314697 -2.43492e-20)
(0.100669 -0.0582879 -2.52727e-20)
(0.101319 -0.0572357 2.16756e-20)
(0.102386 -0.0561246 0)
(0.103485 -0.0545733 -2.09968e-20)
(0.104531 -0.052537 2.47883e-20)
(0.105483 -0.0500201 -1.05109e-20)
(0.106307 -0.0470414 1.65519e-20)
(0.106964 -0.0436267 -7.28988e-21)
(0.107415 -0.0398142 0)
(0.107627 -0.0356545 0)
(0.107573 -0.0312098 6.25414e-22)
(0.107236 -0.0265507 -4.96364e-22)
(0.106609 -0.0217535 0)
(0.105695 -0.0168967 -1.27648e-22)
(0.104507 -0.0120567 3.79422e-19)
(0.103064 -0.0073056 -3.79462e-19)
(0.101394 -0.00270791 3.07071e-22)
(0.0995271 0.00168079 0)
(0.0974968 0.00581482 6.15409e-21)
(0.0953373 0.0096586 -5.96278e-21)
(0.0930825 0.0131864 0)
(0.0907649 0.0163814 0)
(0.088415 0.0192352 1.90635e-20)
(0.0860609 0.0217463 -3.54108e-20)
(0.0837281 0.0239193 1.45145e-20)
(0.0814377 0.0257628 -3.14862e-20)
(0.079203 0.0272851 3.47877e-20)
(0.077039 0.028499 0)
(0.074996 0.0294479 -3.36274e-20)
(0.073371 0.0304436 2.66713e-20)
(0.0857698 -0.053814 -2.59993e-20)
(0.086562 -0.0525119 2.52794e-20)
(0.087716 -0.0511704 -2.60906e-20)
(0.0888541 -0.0494258 1.05584e-21)
(0.0898925 -0.0472457 1.48667e-21)
(0.0907979 -0.0446457 3.45259e-20)
(0.0915439 -0.0416541 -1.02886e-20)
(0.0921007 -0.0383047 -9.48975e-22)
(0.0924405 -0.0346401 5.04732e-21)
(0.0925421 -0.0307119 -8.18183e-21)
(0.0923917 -0.0265792 3.07101e-21)
(0.0919839 -0.0223054 -7.39752e-22)
(0.0913213 -0.0179555 1.68608e-21)
(0.0904141 -0.0135935 -1.72e-21)
(0.0892784 -0.00927976 4.26224e-19)
(0.0879352 -0.00506888 -4.24154e-19)
(0.0864083 -0.00100882 -4.39374e-21)
(0.084723 0.00285984 1.0092e-20)
(0.0829051 0.00650393 -6.06155e-21)
(0.0809795 0.00989734 -1.65173e-20)
(0.0789707 0.0130206 3.38102e-20)
(0.0769018 0.0158603 -1.71033e-20)