/*--------------------------------*- C++ -*----------------------------------*\
  =========                 |
  \\      /  F ield         | OpenFOAM: The Open Source CFD Toolbox
   \\    /   O peration     | Website:  https://openfoam.org
    \\  /    A nd           | Version:  12
     \\/     M anipulation  |
\*---------------------------------------------------------------------------*/
FoamFile
{
    format      ascii;
    class       volSymmTensorField;
    location    "180";
    object      UPrime2Mean;
}
// * * * * * * * * * * * * * * * * * * * * * * * * * * * * * * * * * * * * * //

dimensions      [0 2 -2 0 0 0 0];

internalField   nonuniform List<symmTensor> 
6750
(
(3.38457e-10 5.17809e-09 0 1.48963e-07 0 0)
(7.95093e-09 9.81446e-08 0 2.06384e-06 0 0)
(2.57904e-08 3.28378e-07 0 6.54871e-06 0 0)
(4.78562e-08 6.63615e-07 0 1.36068e-05 0 0)
(1.14619e-07 1.42436e-06 0 2.29743e-05 0 0)
(3.47337e-11 5.65571e-10 0 1.1375e-07 0 0)
(1.43661e-09 4.07606e-08 0 1.74307e-06 0 0)
(9.96626e-09 2.00606e-07 0 5.63969e-06 0 0)
(3.45628e-08 5.57919e-07 0 1.16896e-05 0 0)
(9.25955e-08 1.21301e-06 0 1.9479e-05 0 0)
(2.86228e-11 6.16713e-10 0 1.03534e-07 0 0)
(1.19991e-09 4.09179e-08 0 1.59269e-06 0 0)
(1.0589e-08 2.18449e-07 0 5.08887e-06 0 0)
(4.11932e-08 6.16807e-07 0 1.03228e-05 0 0)
(1.06966e-07 1.26852e-06 0 1.67132e-05 0 0)
(2.4268e-11 5.65202e-10 0 9.06009e-08 0 0)
(1.78135e-09 4.88004e-08 0 1.40922e-06 0 0)
(1.48651e-08 2.51633e-07 0 4.45922e-06 0 0)
(5.40075e-08 6.77998e-07 0 8.92287e-06 0 0)
(1.2942e-07 1.32437e-06 0 1.42496e-05 0 0)
(1.82562e-11 4.34841e-10 0 7.61116e-08 0 0)
(2.42073e-09 5.33915e-08 0 1.20762e-06 0 0)
(1.96473e-08 2.71065e-07 0 3.81116e-06 0 0)
(6.80173e-08 7.10877e-07 0 7.57751e-06 0 0)
(1.55322e-07 1.35209e-06 0 1.20285e-05 0 0)
(1.19252e-11 2.43821e-10 0 6.18681e-08 0 0)
(2.91919e-09 5.38487e-08 0 1.00485e-06 0 0)
(2.40663e-08 2.75535e-07 0 3.1768e-06 0 0)
(8.20992e-08 7.16802e-07 0 6.30227e-06 0 0)
(1.84275e-07 1.35089e-06 0 9.97927e-06 0 0)
(8.62067e-12 5.12331e-11 0 4.88038e-08 0 0)
(3.29636e-09 5.15687e-08 0 8.10995e-07 0 0)
(2.8217e-08 2.69226e-07 0 2.57364e-06 0 0)
(9.66674e-08 7.01912e-07 0 5.10509e-06 0 0)
(2.16868e-07 1.32235e-06 0 8.07681e-06 0 0)
(1.01934e-11 -1.01911e-10 0 3.72755e-08 0 0)
(3.61745e-09 4.76994e-08 0 6.32016e-07 0 0)
(3.23168e-08 2.55035e-07 0 2.01437e-06 0 0)
(1.11998e-07 6.69061e-07 0 3.99881e-06 0 0)
(2.52905e-07 1.26464e-06 0 6.32582e-06 0 0)
(1.67459e-11 -2.01735e-10 0 2.73707e-08 0 0)
(3.92213e-09 4.28261e-08 0 4.71878e-07 0 0)
(3.64124e-08 2.34236e-07 0 1.51021e-06 0 0)
(1.27791e-07 6.18804e-07 0 3.00122e-06 0 0)
(2.90998e-07 1.17471e-06 0 4.74851e-06 0 0)
(2.71203e-11 -2.49898e-10 0 1.90819e-08 0 0)
(4.2192e-09 3.72073e-08 0 3.33441e-07 0 0)
(4.03868e-08 2.07476e-07 0 1.07107e-06 0 0)
(1.43295e-07 5.51537e-07 0 2.13082e-06 0 0)
(3.28908e-07 1.05135e-06 0 3.37224e-06 0 0)
(3.94248e-11 -2.54758e-10 0 1.23768e-08 0 0)
(4.49776e-09 3.09866e-08 0 2.18685e-07 0 0)
(4.40373e-08 1.75476e-07 0 7.04745e-07 0 0)
(1.57551e-07 4.68776e-07 0 1.40343e-06 0 0)
(3.64022e-07 8.96694e-07 0 2.22167e-06 0 0)
(5.15964e-11 -2.2644e-10 0 7.20932e-09 0 0)
(4.73624e-09 2.42971e-08 0 1.28645e-07 0 0)
(4.71374e-08 1.39275e-07 0 4.1589e-07 0 0)
(1.69642e-07 3.73439e-07 0 8.28975e-07 0 0)
(3.93938e-07 7.16244e-07 0 1.31261e-06 0 0)
(6.15089e-11 -1.73323e-10 0 3.51216e-09 0 0)
(4.9068e-09 1.73012e-08 0 6.33462e-08 0 0)
(4.94897e-08 1.00226e-07 0 2.0557e-07 0 0)
(1.78854e-07 2.69477e-07 0 4.10121e-07 0 0)
(4.16872e-07 5.17875e-07 0 6.49518e-07 0 0)
(6.56359e-11 -9.99803e-11 0 1.1888e-09 0 0)
(4.96889e-09 1.01984e-08 0 2.18366e-08 0 0)
(5.09567e-08 5.98554e-08 0 7.12983e-08 0 0)
(1.84782e-07 1.61301e-07 0 1.42364e-07 0 0)
(4.31867e-07 3.10445e-07 0 2.25508e-07 0 0)
(5.72265e-11 -2.49646e-11 0 1.28376e-10 0 0)
(4.83052e-09 3.23445e-09 0 2.27111e-09 0 0)
(5.15009e-08 1.96476e-08 0 7.60177e-09 0 0)
(1.87429e-07 5.31742e-08 0 1.52467e-08 0 0)
(4.38897e-07 1.02537e-07 0 2.41954e-08 0 0)
(5.73117e-11 1.96139e-11 0 1.60441e-10 0 0)
(4.83139e-09 -3.3364e-09 0 2.42458e-09 0 0)
(5.14992e-08 -2.00039e-08 0 7.9121e-09 0 0)
(1.87423e-07 -5.38242e-08 0 1.56838e-08 0 0)
(4.3888e-07 -1.03473e-07 0 2.47328e-08 0 0)
(6.55103e-11 9.64089e-11 0 1.28534e-09 0 0)
(4.96674e-09 -1.03009e-08 0 2.23109e-08 0 0)
(5.09491e-08 -6.02078e-08 0 7.22434e-08 0 0)
(1.84761e-07 -1.61941e-07 0 1.43692e-07 0 0)
(4.31813e-07 -3.11358e-07 0 2.27137e-07 0 0)
(6.12415e-11 1.71286e-10 0 3.67413e-09 0 0)
(4.90251e-09 -1.73982e-08 0 6.41508e-08 0 0)
(4.94758e-08 -1.00564e-07 0 2.07168e-07 0 0)
(1.78817e-07 -2.70089e-07 0 4.12359e-07 0 0)
(4.16781e-07 -5.18737e-07 0 6.52261e-07 0 0)
(5.12747e-11 2.26379e-10 0 7.43326e-09 0 0)
(4.73039e-09 -2.43841e-08 0 1.29783e-07 0 0)
(4.71187e-08 -1.39592e-07 0 4.18147e-07 0 0)
(1.69593e-07 -3.74009e-07 0 8.32129e-07 0 0)
(3.93815e-07 -7.17029e-07 0 1.31646e-06 0 0)
(3.91302e-11 2.5711e-10 0 1.26564e-08 0 0)
(4.49124e-09 -3.1061e-08 0 2.20154e-07 0 0)
(4.40166e-08 -1.75766e-07 0 7.07658e-07 0 0)
(1.57496e-07 -4.69295e-07 0 1.40748e-06 0 0)
(3.63873e-07 -8.97376e-07 0 2.2266e-06 0 0)
(2.69416e-11 2.54772e-10 0 1.94086e-08 0 0)
(4.2128e-09 -3.72674e-08 0 3.35235e-07 0 0)
(4.03664e-08 -2.07737e-07 0 1.07463e-06 0 0)
(1.43237e-07 -5.51998e-07 0 2.13575e-06 0 0)
(3.28733e-07 -1.0519e-06 0 3.3782e-06 0 0)
(1.67688e-11 2.0904e-10 0 2.77337e-08 0 0)
(3.91579e-09 -4.28669e-08 0 4.73983e-07 0 0)
(3.63895e-08 -2.34452e-07 0 1.5144e-06 0 0)
(1.27729e-07 -6.19187e-07 0 3.00693e-06 0 0)
(2.90811e-07 -1.17511e-06 0 4.7553e-06 0 0)
(1.04687e-11 1.11536e-10 0 3.76615e-08 0 0)
(3.60991e-09 -4.77073e-08 0 6.34397e-07 0 0)
(3.22837e-08 -2.55164e-07 0 2.01914e-06 0 0)
(1.11916e-07 -6.69303e-07 0 4.00526e-06 0 0)
(2.52709e-07 -1.26488e-06 0 6.33331e-06 0 0)
(9.13135e-12 -4.00327e-11 0 4.91977e-08 0 0)
(3.28828e-09 -5.15422e-08 0 8.13596e-07 0 0)
(2.81779e-08 -2.69265e-07 0 2.57896e-06 0 0)
(9.65841e-08 -7.02067e-07 0 5.11248e-06 0 0)
(2.16677e-07 -1.32254e-06 0 8.08587e-06 0 0)
(1.26168e-11 -2.32646e-10 0 6.22577e-08 0 0)
(2.91259e-09 -5.38031e-08 0 1.00763e-06 0 0)
(2.40344e-08 -2.75545e-07 0 3.18263e-06 0 0)
(8.20431e-08 -7.16995e-07 0 6.31062e-06 0 0)
(1.8412e-07 -1.35113e-06 0 9.98987e-06 0 0)
(1.9034e-11 -4.24492e-10 0 7.64898e-08 0 0)
(2.41544e-09 -5.33299e-08 0 1.21054e-06 0 0)
(1.96208e-08 -2.71049e-07 0 3.81756e-06 0 0)
(6.79716e-08 -7.11071e-07 0 7.58709e-06 0 0)
(1.55177e-07 -1.35233e-06 0 1.20411e-05 0 0)
(2.49991e-11 -5.56636e-10 0 9.09629e-08 0 0)
(1.77724e-09 -4.87302e-08 0 1.41224e-06 0 0)
(1.48437e-08 -2.51602e-07 0 4.46616e-06 0 0)
(5.3972e-08 -6.78232e-07 0 8.93391e-06 0 0)
(1.29282e-07 -1.32456e-06 0 1.42646e-05 0 0)
(2.91324e-11 -6.10087e-10 0 1.03878e-07 0 0)
(1.19577e-09 -4.08409e-08 0 1.59576e-06 0 0)
(1.05691e-08 -2.184e-07 0 5.09631e-06 0 0)
(4.11514e-08 -6.1697e-07 0 1.03352e-05 0 0)
(1.06819e-07 -1.26843e-06 0 1.67311e-05 0 0)
(3.49241e-11 -5.61915e-10 0 1.14072e-07 0 0)
(1.43055e-09 -4.06917e-08 0 1.74614e-06 0 0)
(9.94295e-09 -2.00544e-07 0 5.64748e-06 0 0)
(3.45108e-08 -5.57978e-07 0 1.17035e-05 0 0)
(9.24498e-08 -1.21245e-06 0 1.95e-05 0 0)
(3.37637e-10 -5.17431e-09 0 1.49259e-07 0 0)
(7.93555e-09 -9.80592e-08 0 2.06674e-06 0 0)
(2.57497e-08 -3.28197e-07 0 6.55644e-06 0 0)
(4.77842e-08 -6.63175e-07 0 1.36212e-05 0 0)
(1.14455e-07 -1.42286e-06 0 2.29971e-05 0 0)
(1.24771e-06 7.93984e-06 0 5.51428e-05 0 0)
(2.91042e-06 1.4542e-05 0 7.73835e-05 0 0)
(5.10528e-06 2.21918e-05 0 0.000101573 0 0)
(7.45544e-06 3.00105e-05 -5.80457e-25 0.000126524 -1.38088e-24 1.51773e-42)
(9.8897e-06 3.77939e-05 0 0.000150772 0 0)
(1.2342e-05 4.52938e-05 0 0.000173105 0 0)
(1.47256e-05 5.2209e-05 6.00738e-23 0.000192426 1.50526e-22 5.84012e-39)
(1.69777e-05 5.82716e-05 -6.6378e-23 0.000207666 -1.65475e-22 5.94325e-39)
(1.90196e-05 6.32049e-05 -5.64745e-25 0.000217794 -1.40814e-24 3.33233e-43)
(2.09556e-05 6.71396e-05 -3.94075e-23 0.000222721 -9.79904e-23 1.25463e-39)
(2.26788e-05 6.97325e-05 4.83642e-26 0.000221452 -2.58661e-25 2.62703e-42)
(2.42414e-05 7.08524e-05 1.92874e-25 0.000213167 1.82777e-25 3.09819e-42)
(2.56675e-05 7.06238e-05 2.34495e-23 0.000199023 5.51144e-23 2.97843e-40)
(2.69966e-05 6.91126e-05 2.40567e-23 0.00018001 5.51016e-23 2.41862e-40)
(2.82709e-05 6.64046e-05 5.78517e-23 0.000157538 1.28276e-22 1.07591e-39)
(2.95308e-05 6.25835e-05 -5.95477e-23 0.000133281 -1.2717e-22 1.07608e-39)
(3.08237e-05 5.77294e-05 2.45261e-23 0.000108974 5.00339e-23 1.42449e-40)
(3.21973e-05 5.19062e-05 2.33804e-23 8.61945e-05 4.51674e-23 1.01025e-40)
(3.37034e-05 4.51889e-05 -1.34114e-24 6.62533e-05 -2.49305e-24 3.28326e-42)
(3.54083e-05 3.76804e-05 -1.44731e-24 5.007e-05 -2.4153e-24 2.84185e-42)
(3.74332e-05 2.95388e-05 -4.78345e-23 3.81021e-05 -7.29196e-23 3.53072e-40)
(3.97819e-05 2.07559e-05 7.35595e-25 3.01081e-05 9.80788e-25 7.02626e-44)
(4.23775e-05 1.15279e-05 -8.95367e-23 2.60295e-05 -1.03915e-22 9.01989e-40)
(4.52156e-05 2.08686e-06 9.10723e-23 2.53659e-05 8.72102e-23 8.86091e-40)
(4.82563e-05 -7.34248e-06 0 2.74242e-05 0 0)
(5.1421e-05 -1.65455e-05 0 3.14413e-05 0 0)
(5.4614e-05 -2.53227e-05 1.40262e-24 3.66749e-05 4.80256e-25 1.4205e-43)
(5.77733e-05 -3.34787e-05 0 4.24585e-05 0 0)
(6.09557e-05 -4.07886e-05 0 4.81855e-05 0 0)
(6.37988e-05 -4.70156e-05 0 5.32244e-05 0 0)
(1.95228e-06 1.09308e-05 0 6.60184e-05 0 0)
(3.82546e-06 1.79994e-05 0 8.98003e-05 0 0)
(5.9829e-06 2.54051e-05 0 0.000113455 0 0)
(8.26709e-06 3.28535e-05 5.78916e-25 0.000136721 1.37114e-24 1.34988e-42)
(1.06537e-05 4.02436e-05 0 0.000158726 0 0)
(1.30677e-05 4.73222e-05 0 0.000178558 0 0)
(1.54346e-05 5.38233e-05 -5.7515e-23 0.000195289 -1.40591e-22 5.04512e-39)
(1.77053e-05 5.95203e-05 6.43709e-23 0.000208014 1.55572e-22 5.28374e-39)
(1.98243e-05 6.42033e-05 5.43366e-25 0.000215935 1.30924e-24 2.93691e-43)
(2.18863e-05 6.80108e-05 0 0.000219193 0 0)
(2.37811e-05 7.05363e-05 0 0.000216497 0 0)
(2.55887e-05 7.17833e-05 4.21097e-23 0.000207703 9.64108e-23 9.16489e-40)
(2.72859e-05 7.17822e-05 -4.43526e-23 0.0001938 -9.87488e-23 9.22262e-40)
(2.88995e-05 7.05739e-05 0 0.000175685 0 0)
(3.04472e-05 6.82046e-05 1.62413e-22 0.000154591 3.4128e-22 7.94391e-39)
(3.19441e-05 6.47226e-05 -1.67533e-22 0.000131948 -3.39725e-22 7.93861e-39)
(3.34148e-05 6.0183e-05 0 0.000109218 0 0)
(3.48948e-05 5.465e-05 -4.77059e-23 8.77625e-05 -8.82661e-23 4.32795e-40)
(3.64318e-05 4.8201e-05 4.87886e-23 6.87069e-05 8.52807e-23 4.37076e-40)
(3.8092e-05 4.09469e-05 0 5.28793e-05 0 0)
(3.9926e-05 3.29944e-05 0 4.07265e-05 0 0)
(4.20041e-05 2.44314e-05 -7.15953e-25 3.22055e-05 -9.59244e-25 6.18316e-44)
(4.43358e-05 1.54462e-05 8.9178e-23 2.72712e-05 1.02971e-22 8.17587e-40)
(4.68711e-05 6.21334e-06 -9.18153e-23 2.55642e-05 -8.93353e-23 8.31326e-40)
(4.95907e-05 -3.05549e-06 0 2.65465e-05 0 0)
(5.24422e-05 -1.21596e-05 0 2.95828e-05 0 0)
(5.53436e-05 -2.09193e-05 -1.33498e-24 3.40205e-05 -5.86246e-25 1.26031e-43)
(5.82119e-05 -2.91753e-05 0 3.92513e-05 0 0)
(6.10892e-05 -3.67849e-05 0 4.47474e-05 0 0)
(6.38692e-05 -4.38104e-05 0 5.01918e-05 0 0)
(2.71576e-06 1.37562e-05 0 7.45261e-05 0 0)
(4.55157e-06 2.04639e-05 0 9.7267e-05 0 0)
(6.68269e-06 2.75722e-05 0 0.0001195 0 0)
(8.9956e-06 3.48418e-05 -3.92528e-23 0.000141233 -9.22043e-23 5.47401e-39)
(1.14299e-05 4.20674e-05 4.57208e-23 0.000161636 1.0695e-22 5.60335e-39)
(1.39134e-05 4.89913e-05 -5.44175e-23 0.000179814 -1.28126e-22 5.60707e-39)
(1.63967e-05 5.53891e-05 6.10263e-23 0.000194885 1.41669e-22 5.71304e-39)
(1.88426e-05 6.10575e-05 -1.07266e-24 0.000206035 -2.4752e-24 1.324e-42)
(2.12277e-05 6.58517e-05 0 0.000212656 0 0)
(2.36204e-05 6.98572e-05 0 0.000214904 0 0)
(2.5928e-05 7.26537e-05 1.34619e-24 0.000211409 2.89964e-24 1.08944e-42)
(2.82212e-05 7.42888e-05 0 0.000202479 0 0)
(3.04426e-05 7.47142e-05 0 0.000188928 0 0)
(3.2595e-05 7.39319e-05 3.97462e-25 0.000171599 7.83435e-25 5.22467e-44)
(3.46604e-05 7.19416e-05 2.94231e-22 0.000151607 5.62276e-22 2.2615e-38)
(3.66192e-05 6.87552e-05 -3.04721e-22 0.00013022 -5.61325e-22 2.26146e-38)
(3.8463e-05 6.44043e-05 -4.2933e-25 0.000108733 -7.60665e-25 3.69077e-44)
(4.02038e-05 5.8946e-05 0 8.83389e-05 0 0)
(4.1878e-05 5.24674e-05 0 7.00413e-05 0 0)
(4.35483e-05 4.50905e-05 -1.71714e-24 5.45812e-05 -2.57376e-24 3.93545e-43)
(4.52875e-05 3.69588e-05 0 4.23967e-05 0 0)
(4.71601e-05 2.82394e-05 0 3.36551e-05 0 0)
(4.91965e-05 1.90809e-05 1.62725e-24 2.82185e-05 1.80173e-24 2.47235e-43)
(5.13976e-05 9.6834e-06 1.02206e-22 2.58293e-05 9.62731e-23 8.51982e-40)
(5.37553e-05 2.55338e-07 -1.03008e-22 2.60551e-05 -8.01264e-23 8.36182e-40)
(5.624e-05 -9.0058e-06 1.02292e-22 2.83566e-05 6.24895e-23 7.06379e-40)
(5.87999e-05 -1.79222e-05 -1.03395e-22 3.21548e-05 -4.59195e-23 6.88663e-40)
(6.13648e-05 -2.6336e-05 0 3.68822e-05 0 0)
(6.3888e-05 -3.41064e-05 0 4.20283e-05 0 0)
(6.59385e-05 -4.13998e-05 0 4.74549e-05 0 0)
(3.47241e-06 1.64317e-05 0 8.25104e-05 0 0)
(5.28265e-06 2.28775e-05 5.78742e-23 0.000104259 1.33208e-22 2.54395e-38)
(7.46986e-06 2.98897e-05 -3.55197e-23 0.000125257 -8.06349e-23 6.71897e-39)
(9.87812e-06 3.71001e-05 -8.76085e-23 0.000145539 -2.01014e-22 2.64295e-38)
(1.24327e-05 4.42588e-05 1.02666e-22 0.000164317 2.33976e-22 2.60818e-38)
(1.50863e-05 5.11496e-05 -5.7932e-23 0.000180766 -1.29953e-22 6.33109e-39)
(1.7814e-05 5.75869e-05 0 0.000194099 0 0)
(2.05803e-05 6.33718e-05 -2.26516e-24 0.000203614 -4.85722e-24 5.6067e-42)
(2.34294e-05 6.84748e-05 0 0.000208969 0 0)
(2.63341e-05 7.27904e-05 0 0.000210094 0 0)
(2.92821e-05 7.60104e-05 -5.12408e-23 0.00020585 -1.00979e-22 1.32107e-39)
(3.22864e-05 7.81388e-05 5.20408e-23 0.000196812 9.8308e-23 1.17801e-39)
(3.52721e-05 7.9078e-05 0 0.000183639 0 0)
(3.8205e-05 7.87859e-05 -4.58498e-25 0.000167123 -8.09885e-25 5.75876e-44)
(4.10218e-05 7.72163e-05 4.55799e-22 0.000148266 7.77771e-22 4.54075e-38)
(4.36573e-05 7.43445e-05 -4.73967e-22 0.000128182 -7.78419e-22 4.54058e-38)
(4.60629e-05 7.0178e-05 5.00003e-25 0.000107993 7.91068e-25 4.068e-44)
(4.82207e-05 6.47656e-05 0 8.87358e-05 0 0)
(5.01514e-05 5.82016e-05 6.39191e-23 7.12914e-05 9.21168e-23 4.83116e-40)
(5.19153e-05 5.06259e-05 -6.04432e-23 5.63293e-05 -8.23119e-23 4.2255e-40)
(5.36e-05 4.22125e-05 -1.97919e-24 4.42764e-05 -2.49635e-24 3.85565e-43)
(5.52879e-05 3.315e-05 0 3.53167e-05 0 0)
(5.70371e-05 2.36325e-05 3.83283e-24 2.94139e-05 3.93734e-24 1.17207e-42)
(5.8885e-05 1.38739e-05 0 2.63723e-05 0 0)
(6.08474e-05 4.08957e-06 -1.15901e-22 2.58489e-05 -8.76197e-23 8.57672e-40)
(6.2916e-05 -5.51988e-06 2.26144e-22 2.73948e-05 1.38078e-22 3.095e-39)
(6.50689e-05 -1.47753e-05 -2.22006e-22 3.0507e-05 -1.02878e-22 2.74548e-39)
(6.72746e-05 -2.35173e-05 -1.07248e-22 3.46697e-05 -3.42936e-23 5.56999e-40)
(6.94453e-05 -3.16064e-05 2.20699e-22 3.94006e-05 3.92992e-23 2.36124e-39)
(7.05939e-05 -3.93183e-05 0 4.47184e-05 0 0)
(4.30584e-06 1.92205e-05 0 9.03091e-05 0 0)
(6.17211e-06 2.55837e-05 -6.48775e-23 0.000110973 -1.49033e-22 2.92594e-38)
(8.48226e-06 3.25832e-05 7.71939e-23 0.000130592 1.74329e-22 2.82828e-38)
(1.10488e-05 3.97794e-05 0 0.000149243 0 0)
(1.38114e-05 4.69419e-05 0 0.000166228 0 0)
(1.67516e-05 5.38965e-05 -1.94538e-24 0.00018081 -4.10156e-24 6.4972e-42)
(1.98623e-05 6.04773e-05 0 0.000192305 0 0)
(2.31174e-05 6.64936e-05 2.53611e-24 0.000200128 5.03452e-24 6.15806e-42)
(2.65995e-05 7.19815e-05 -4.48076e-23 0.000204197 -8.5397e-23 1.44165e-39)
(3.0231e-05 7.66906e-05 4.96618e-23 0.000204141 9.04589e-23 1.46321e-39)
(3.40485e-05 8.04095e-05 5.60521e-23 0.000199242 9.85784e-23 1.35111e-39)
(3.80025e-05 8.30745e-05 -5.90725e-23 0.000190146 -9.88658e-23 1.28098e-39)
(4.20048e-05 8.45655e-05 -1.96435e-24 0.000177432 -3.1649e-24 1.09783e-42)
(4.59719e-05 8.47945e-05 1.04255e-24 0.000161831 1.61884e-24 2.50234e-43)
(4.97849e-05 8.36747e-05 6.55316e-22 0.000144228 9.8517e-22 7.68874e-38)
(5.33224e-05 8.11469e-05 -6.83787e-22 0.00012558 -9.89142e-22 7.6884e-38)
(5.64861e-05 7.71943e-05 -1.16218e-24 0.000106835 -1.62448e-24 1.80688e-43)
(5.92214e-05 7.18528e-05 2.35663e-24 8.88692e-05 3.16852e-24 6.39772e-43)
(6.15305e-05 6.5217e-05 -7.51931e-23 7.24334e-05 -9.65906e-23 5.40217e-40)
(6.3471e-05 5.74377e-05 7.34011e-23 5.81167e-05 8.96787e-23 5.03231e-40)
(6.51432e-05 4.87097e-05 7.60793e-23 4.63214e-05 8.67989e-23 4.40334e-40)
(6.6658e-05 3.92488e-05 -7.36306e-23 3.72524e-05 -7.78917e-23 4.0757e-40)
(6.8111e-05 2.92844e-05 -4.44822e-24 3.09425e-05 -4.26557e-24 1.28729e-42)
(6.95759e-05 1.90526e-05 0 2.72715e-05 0 0)
(7.10982e-05 8.78328e-06 4.30399e-24 2.59861e-05 3.10919e-24 1.02251e-42)
(7.26932e-05 -1.31272e-06 0 2.6729e-05 0 0)
(7.43649e-05 -1.10477e-05 0 2.90783e-05 0 0)
(7.61239e-05 -2.02534e-05 2.52117e-22 3.25815e-05 8.75106e-23 2.75433e-39)
(7.78804e-05 -2.8791e-05 -2.43926e-22 3.67914e-05 -5.3984e-23 2.51536e-39)
(7.80219e-05 -3.71229e-05 0 4.18693e-05 0 0)
(5.31266e-06 2.22877e-05 -5.68528e-23 9.76633e-05 -1.21542e-22 2.87973e-38)
(7.32838e-06 2.8695e-05 1.05464e-22 0.000116948 2.37196e-22 7.09513e-38)
(9.83484e-06 3.57302e-05 -4.20455e-23 0.000134972 -9.1727e-23 7.65144e-39)
(1.26468e-05 4.29652e-05 0 0.000151823 0 0)
(1.57296e-05 5.02043e-05 -5.95524e-23 0.00016689 -1.21613e-22 7.23261e-39)
(1.90907e-05 5.72992e-05 6.6823e-23 0.000179518 1.30133e-22 6.95877e-39)
(2.27386e-05 6.40929e-05 -7.66839e-23 0.000189132 -1.43564e-22 6.42136e-39)
(2.66619e-05 7.04089e-05 8.92994e-23 0.000195276 1.57992e-22 6.97855e-39)
(3.09732e-05 7.63156e-05 0 0.000198049 0 0)
(3.55631e-05 8.14489e-05 3.47045e-24 0.000196842 5.57856e-24 5.97181e-42)
(4.04918e-05 8.56797e-05 -6.17556e-23 0.000191402 -9.54066e-23 1.38229e-39)
(4.56557e-05 8.88847e-05 3.38302e-23 0.000182343 4.90551e-23 3.79545e-40)
(5.09438e-05 9.0927e-05 4.6669e-24 0.000170195 6.15445e-24 9.20804e-42)
(5.62126e-05 9.16799e-05 3.76287e-23 0.000155624 5.08925e-23 2.7773e-40)
(6.12773e-05 9.10228e-05 8.98734e-22 0.000139395 1.18219e-21 1.17809e-37)
(6.59499e-05 8.88664e-05 -9.40192e-22 0.000122309 -1.19165e-21 1.17798e-37)
(7.00724e-05 8.51686e-05 4.4789e-23 0.000105148 5.51211e-23 2.05282e-40)
(7.35474e-05 7.99484e-05 -5.94029e-24 8.86236e-05 -7.06657e-24 6.27835e-42)
(7.63543e-05 7.32925e-05 4.3821e-23 7.33552e-05 4.99339e-23 1.33018e-40)
(7.85496e-05 6.53536e-05 -8.91902e-23 5.98432e-05 -9.75003e-23 5.95505e-40)
(8.02496e-05 5.63382e-05 -5.49844e-24 4.84539e-05 -5.66331e-24 1.93464e-42)
(8.1598e-05 4.64854e-05 0 3.94079e-05 0 0)
(8.27342e-05 3.60512e-05 1.67421e-22 3.27877e-05 1.47342e-22 1.42878e-39)
(8.37743e-05 2.52953e-05 -1.71048e-22 2.85461e-05 -1.35955e-22 1.48816e-39)
(8.48005e-05 1.44671e-05 1.64047e-22 2.65168e-05 1.13709e-22 1.18307e-39)
(8.58567e-05 3.79284e-06 -1.57264e-22 2.64338e-05 -9.30198e-23 1.08334e-39)
(8.69725e-05 -6.52451e-06 -9.57065e-24 2.79605e-05 -4.55129e-24 3.62446e-42)
(8.81984e-05 -1.62992e-05 -1.4626e-22 3.07157e-05 -5.40692e-23 7.79086e-40)
(8.94599e-05 -2.53837e-05 4.24736e-22 3.42975e-05 1.08541e-22 6.23935e-39)
(8.84832e-05 -3.45009e-05 -2.96428e-22 3.8962e-05 -3.95494e-23 3.00836e-39)
(6.59682e-06 2.57412e-05 3.03217e-23 0.000104228 6.35966e-23 7.29848e-39)
(8.86894e-06 3.22903e-05 -4.03379e-23 0.000121835 -8.66354e-23 9.31771e-39)
(1.16659e-05 3.94108e-05 -4.92498e-23 0.000138086 -1.01494e-22 9.05663e-39)
(1.48352e-05 4.67383e-05 5.89609e-23 0.000153012 1.15165e-22 9.30288e-39)
(1.83725e-05 5.41092e-05 -6.57188e-23 0.000166067 -1.22444e-22 7.82899e-39)
(2.23086e-05 6.13887e-05 8.13192e-23 0.00017669 1.42471e-22 9.05134e-39)
(2.66666e-05 6.84231e-05 2.67415e-24 0.000184413 4.35287e-24 7.36717e-42)
(3.14683e-05 7.50726e-05 0 0.000188934 0 0)
(3.68238e-05 8.13757e-05 -5.66995e-23 0.000190413 -8.42768e-23 1.70383e-39)
(4.2626e-05 8.69191e-05 -3.96842e-24 0.000188149 -6.49239e-24 1.48956e-42)
(4.89267e-05 9.163e-05 -4.32271e-24 0.000182301 -6.74417e-24 1.2253e-42)
(5.55795e-05 9.53424e-05 7.96744e-23 0.000173395 1.0095e-22 1.6205e-39)
(6.24356e-05 9.79061e-05 3.9144e-23 0.000161929 4.8117e-23 2.82146e-40)
(6.92823e-05 9.91663e-05 -6.7143e-23 0.000148499 -7.91422e-23 7.05579e-40)
(7.58581e-05 9.89767e-05 1.21117e-21 0.000133753 1.39045e-21 1.75377e-37)
(8.18982e-05 9.72217e-05 -1.21973e-21 0.000118344 -1.35341e-21 1.61997e-37)
(8.7177e-05 9.38335e-05 -7.61539e-23 0.000102886 -8.24473e-23 4.96965e-40)
(9.15479e-05 8.88092e-05 5.84215e-23 8.79381e-05 6.1417e-23 2.66083e-40)
(9.49657e-05 8.22194e-05 1.03885e-22 7.39858e-05 1.05615e-22 6.67547e-40)
(9.74867e-05 7.42089e-05 5.52983e-24 6.14375e-05 5.05993e-24 8.66971e-43)
(9.92478e-05 6.49862e-05 5.32158e-24 5.06138e-05 4.52251e-24 8.09478e-43)
(0.00010043 5.48033e-05 -1.01997e-22 4.17374e-05 -8.98023e-23 5.09838e-40)
(0.000101222 4.39358e-05 0 3.49287e-05 0 0)
(0.000101788 3.26649e-05 -6.16316e-24 3.0205e-05 -4.51871e-24 1.50475e-42)
(0.000102255 2.12605e-05 1.75036e-22 2.74813e-05 1.15566e-22 1.09681e-39)
(0.000102701 9.96753e-06 -1.84003e-22 2.6579e-05 -1.06082e-22 1.22026e-39)
(0.000103185 -9.92925e-07 1.75309e-22 2.72493e-05 8.46717e-23 9.82018e-40)
(0.000103797 -1.14088e-05 -1.6224e-22 2.91857e-05 -6.30601e-23 8.42024e-40)
(0.000104484 -2.11156e-05 -1.57206e-22 3.2043e-05 -4.48622e-23 6.97366e-40)
(0.000102288 -3.11582e-05 1.76339e-22 3.61131e-05 3.13995e-23 8.97533e-40)
(8.28647e-06 2.96688e-05 0 0.000109673 0 0)
(1.09407e-05 3.64319e-05 -3.95576e-23 0.000125357 -7.90325e-23 7.63016e-39)
(1.41435e-05 4.36759e-05 5.79349e-23 0.000139703 1.08742e-22 1.13379e-38)
(1.7805e-05 5.11309e-05 -6.57738e-23 0.000152608 -1.16441e-22 9.73222e-39)
(2.1953e-05 5.8657e-05 7.31694e-23 0.000163588 1.20563e-22 8.85496e-39)
(2.66412e-05 6.61276e-05 -8.03824e-23 0.000172185 -1.24697e-22 7.29294e-39)
(3.19042e-05 7.33871e-05 9.2594e-23 0.000178039 1.32989e-22 7.48905e-39)
(3.78334e-05 8.0374e-05 7.00028e-24 0.000181032 9.4035e-24 3.12646e-41)
(4.44614e-05 8.69896e-05 3.97996e-24 0.000181223 5.04521e-24 7.49582e-42)
(5.17529e-05 9.28946e-05 4.47934e-24 0.00017806 5.37728e-24 7.12537e-42)
(5.97044e-05 9.80193e-05 5.05636e-24 0.000171947 5.81528e-24 6.73194e-42)
(6.81386e-05 0.00010218 -2.77594e-24 0.000163324 -3.05249e-24 1.56855e-42)
(7.68523e-05 0.000105217 5.08856e-23 0.000152662 5.40667e-23 3.99928e-40)
(8.55534e-05 0.00010696 -2.57542e-23 0.000140483 -2.59966e-23 9.75421e-41)
(9.38944e-05 0.000107244 1.49753e-21 0.000127322 1.5015e-21 2.20869e-37)
(0.000101524 0.000105931 -1.62751e-21 0.000113686 -1.58442e-21 2.37223e-37)
(0.000108143 0.000102927 -2.92472e-23 0.000100037 -2.80675e-23 5.22862e-41)
(0.000113552 9.82002e-05 5.27343e-23 8.67834e-05 4.92364e-23 1.79874e-40)
(0.00011768 9.17973e-05 -3.7996e-24 7.42832e-05 -3.45622e-24 7.63324e-43)
(0.000120585 8.38446e-05 -1.51849e-23 6.28507e-05 -1.33809e-23 1.07658e-41)
(0.00012243 7.45413e-05 -7.55354e-24 5.27528e-05 -6.38624e-24 2.38282e-42)
(0.000123438 6.41417e-05 -7.44565e-24 4.42019e-05 -5.97851e-24 2.10249e-42)
(0.000123851 5.29328e-05 -1.45944e-23 3.73444e-05 -1.09822e-23 7.42243e-42)
(0.000123889 4.12127e-05 2.39043e-22 3.2251e-05 1.66179e-22 1.79251e-39)
(0.000123729 2.92704e-05 -2.3525e-22 2.89096e-05 -1.48965e-22 1.74204e-39)
(0.000123489 1.737e-05 2.11771e-22 2.72245e-05 1.18202e-22 1.24253e-39)
(0.000123265 5.75317e-06 -1.95158e-22 2.7032e-05 -9.42707e-23 1.06595e-39)
(0.000123186 -5.33832e-06 1.73387e-22 2.81041e-05 6.94123e-23 7.47472e-40)
(0.000123224 -1.57144e-05 -2.06915e-22 3.0159e-05 -6.60217e-23 1.07023e-39)
(0.000119726 -2.67899e-05 0 3.34672e-05 0 0)
(1.05408e-05 3.41263e-05 0 0.000113694 0 0)
(1.37253e-05 4.11423e-05 -2.92079e-24 0.000127257 -5.20022e-24 3.73646e-41)
(1.74714e-05 4.85242e-05 5.05852e-23 0.000139602 8.46223e-23 7.1776e-39)
(2.17822e-05 5.61085e-05 4.45731e-26 0.00015042 6.00515e-25 3.90165e-42)
(2.67204e-05 6.37753e-05 -8.21073e-23 0.000159301 -1.17308e-22 9.61744e-39)
(3.23623e-05 7.14029e-05 -6.07762e-24 0.000165891 -8.12774e-24 3.62608e-41)
(3.87574e-05 7.88379e-05 -6.87512e-24 0.000169937 -8.39491e-24 3.52597e-41)
(4.60665e-05 8.60972e-05 5.57749e-23 0.000171515 6.44929e-23 1.61614e-39)
(5.42356e-05 9.29271e-05 -7.72941e-23 0.000170491 -8.33064e-23 2.44043e-39)
(6.33072e-05 9.91134e-05 -7.94282e-26 0.000166629 -1.33896e-25 1.64681e-46)
(7.32009e-05 0.000104557 4.56307e-23 0.000160396 4.49551e-23 4.52368e-40)
(8.37146e-05 0.000109088 -5.01607e-23 0.000152195 -4.68283e-23 4.57815e-40)
(9.45732e-05 0.000112544 2.38815e-23 0.000142459 2.19281e-23 7.37348e-41)
(0.000105396 0.000114747 -2.93249e-23 0.000131634 -2.59405e-23 9.75518e-41)
(0.00011574 0.000115522 1.90908e-21 0.000120144 1.67403e-21 3.01649e-37)
(0.000125161 0.000114709 -2.0023e-21 0.000108363 -1.71541e-21 3.01652e-37)
(0.000133282 0.000112185 -3.37614e-23 9.66076e-05 -2.86447e-23 6.44599e-41)
(0.000139847 0.000107887 3.89663e-23 8.51468e-05 3.24834e-23 8.05914e-41)
(0.000144762 0.000101825 -6.55037e-23 7.42179e-05 -5.35508e-23 1.78139e-40)
(0.00014809 9.40961e-05 8.79405e-23 6.40409e-05 7.03204e-23 3.10532e-40)
(0.000150024 8.488e-05 -6.0203e-26 5.48241e-05 -3.00329e-26 9.48045e-47)
(0.000150836 7.44218e-05 -1.37056e-22 4.67584e-05 -1.0132e-22 5.63107e-40)
(0.000150827 6.30114e-05 1.52223e-22 4.0004e-05 1.07342e-22 6.9357e-40)
(0.000150278 5.09578e-05 1.65523e-23 3.46735e-05 1.08274e-23 7.2672e-42)
(0.00014942 3.8567e-05 1.58711e-23 3.08172e-05 9.62669e-24 6.33522e-42)
(0.000148416 2.61203e-05 -2.46227e-22 2.84151e-05 -1.33725e-22 1.38441e-39)
(0.000147406 1.38831e-05 3.32928e-24 2.73829e-05 2.09038e-24 4.47537e-42)
(0.000146565 2.1258e-06 2.61966e-22 2.75738e-05 1.08089e-22 1.4981e-39)
(0.000145884 -8.93214e-06 0 2.8774e-05 0 0)
(0.000141031 -2.11016e-05 0 3.11788e-05 0 0)
(1.35568e-05 3.91242e-05 0 0.000116001 0 0)
(1.74446e-05 4.6388e-05 5.68532e-23 0.0001273 8.94566e-23 1.15279e-38)
(2.18917e-05 5.38853e-05 1.28316e-25 0.000137584 6.64944e-25 3.60828e-42)
(2.70305e-05 6.1561e-05 9.95771e-27 0.000146293 5.56964e-25 4.33587e-42)
(3.29628e-05 6.93144e-05 -1.78995e-22 0.000153098 -2.16987e-22 3.84442e-38)
(3.97846e-05 7.70259e-05 1.08188e-22 0.00015775 1.20121e-22 1.03174e-38)
(4.75704e-05 8.45599e-05 7.89507e-24 0.000160114 8.20398e-24 3.85173e-41)
(5.65107e-05 9.19607e-05 0 0.000160385 0 0)
(6.65191e-05 9.88925e-05 -7.69851e-23 0.000158298 -7.06309e-23 1.94929e-39)
(7.7665e-05 0.000105245 8.64139e-23 0.000153936 7.39448e-23 1.99504e-39)
(8.98013e-05 0.000110903 -5.15176e-23 0.00014775 -4.30719e-23 4.96349e-40)
(0.000102687 0.000115722 -1.73256e-25 0.000140116 -9.03414e-25 1.02681e-42)
(0.000115966 0.000119544 6.16159e-23 0.000131423 4.80092e-23 4.66575e-40)
(0.000129157 0.000122196 -2.0681e-24 0.000122043 -1.59681e-24 3.996e-43)
(0.000141716 0.000123495 2.33713e-21 0.000112293 1.79711e-21 3.85615e-37)
(0.000153099 0.000123264 -2.4513e-21 0.000102424 -1.8556e-21 3.85969e-37)
(0.000162848 0.000121345 2.4042e-24 9.26233e-05 1.81432e-24 2.9182e-43)
(0.000170655 0.000117634 7.8858e-23 8.30312e-05 5.90625e-23 2.51901e-40)
(0.000176403 0.000112098 -1.76364e-25 7.37718e-05 -2.37582e-25 1.04328e-42)
(0.000180166 0.000104793 -1.00649e-22 6.4974e-05 -7.33824e-23 3.40957e-40)
(0.000182173 9.58664e-05 1.6964e-22 5.67836e-05 1.20273e-22 7.93582e-40)
(0.000182751 8.55458e-05 -1.58738e-22 4.93616e-05 -1.09473e-22 6.88147e-40)
(0.000182263 7.41144e-05 0 4.28698e-05 0 0)
(0.000181058 6.18866e-05 -1.88385e-23 3.74505e-05 -1.17532e-23 7.93893e-42)
(0.000179427 4.91807e-05 2.93422e-22 3.32049e-05 1.69408e-22 1.72802e-39)
(0.000177584 3.62948e-05 -5.89694e-22 3.0179e-05 -3.12955e-22 6.82519e-39)
(0.000175715 2.35177e-05 3.48801e-24 2.83621e-05 2.28805e-24 4.93181e-42)
(0.00017404 1.11495e-05 -1.34993e-23 2.76859e-05 -5.1281e-24 2.40619e-42)
(0.000172574 -5.63372e-07 2.59562e-22 2.80091e-05 9.34435e-23 1.16549e-39)
(0.000166348 -1.38311e-05 0 2.94068e-05 0 0)
(1.75732e-05 4.46091e-05 6.11499e-24 0.00011634 8.67838e-24 1.83374e-40)
(2.23603e-05 5.20628e-05 0 0.000125296 0 0)
(2.76872e-05 5.96133e-05 4.64525e-24 0.0001335 5.64745e-24 4.40614e-41)
(3.38543e-05 6.73028e-05 -8.21429e-23 0.000140131 -9.02528e-23 9.68175e-39)
(4.10043e-05 7.5046e-05 1.0338e-22 0.000144936 1.02461e-22 1.14013e-38)
(4.92478e-05 8.27252e-05 -1.21368e-22 0.000147774 -1.11723e-22 1.07408e-38)
(5.87098e-05 9.02536e-05 1.39982e-22 0.000148635 1.17448e-22 1.10397e-38)
(6.95423e-05 9.76258e-05 8.06357e-23 0.00014772 6.44783e-23 2.53814e-39)
(8.16952e-05 0.000104526 -1.94996e-22 0.000144779 -1.46662e-22 1.13652e-38)
(9.52078e-05 0.000110914 -6.86336e-24 0.000140128 -6.45192e-24 2.30163e-42)
(0.000109881 0.000116679 1.07665e-22 0.000134162 7.43241e-23 2.07551e-39)
(0.000125416 0.000121704 -6.35838e-23 0.000127237 -4.38857e-23 5.07891e-40)
(0.000141364 0.000125853 3.42728e-23 0.000119694 2.25509e-23 1.40101e-40)
(0.000157139 0.000128962 5.81157e-23 0.00011183 3.89988e-23 2.78434e-40)
(0.000172085 0.000130846 2.78469e-21 0.000103865 1.88314e-21 4.75121e-37)
(0.000185559 0.000131303 -2.95709e-21 9.59413e-05 -1.98629e-21 4.88323e-37)
(0.000197021 0.000130142 6.23308e-23 8.81281e-05 4.21446e-23 1.66204e-40)
(0.000206114 0.000127207 4.4655e-23 8.04542e-05 3.02124e-23 6.15381e-41)
(0.000212704 0.000122411 -9.05955e-23 7.29394e-05 -6.11047e-23 2.73105e-40)
(0.000216881 0.000115759 2.05085e-22 6.56253e-05 1.36702e-22 1.1036e-39)
(0.000218915 0.000107356 1.08781e-23 5.85937e-05 6.4474e-24 1.39022e-42)
(0.000219196 9.74006e-05 -3.37726e-22 5.1968e-05 -2.16589e-22 2.51747e-39)
(0.000218158 8.61625e-05 1.77643e-22 4.59009e-05 1.10445e-22 6.65312e-40)
(0.000216218 7.39553e-05 3.45113e-22 4.05516e-05 2.03402e-22 2.14092e-39)
(0.000213734 6.11054e-05 -3.38615e-22 3.60608e-05 -1.89518e-22 2.08202e-39)
(0.000210973 4.79265e-05 3.25163e-22 3.25295e-05 1.68099e-22 1.68398e-39)
(0.000208171 3.47296e-05 -3.38049e-22 3.00138e-05 -1.60563e-22 1.83631e-39)
(0.000205598 2.18452e-05 1.92639e-23 2.85174e-05 8.13451e-24 5.4015e-42)
(0.000203285 9.54405e-06 0 2.7971e-05 0 0)
(0.000195703 -4.76451e-06 -3.77823e-23 2.83016e-05 -1.11505e-23 1.84379e-41)
(2.28715e-05 5.04503e-05 -7.10622e-24 0.000114509 -8.68135e-24 1.98315e-40)
(2.87756e-05 5.79805e-05 7.19383e-23 0.000121118 7.79253e-23 1.36063e-38)
(3.51788e-05 6.548e-05 -8.20852e-23 0.000127277 -7.92862e-23 1.25094e-38)
(4.2591e-05 7.30638e-05 -6.1923e-24 0.000131914 -5.50494e-24 4.78118e-41)